
                                 *****************
                                 * O   R   C   A *
                                 *****************

                                            #,                                       
                                            ###                                      
                                            ####                                     
                                            #####                                    
                                            ######                                   
                                           ########,                                 
                                     ,,################,,,,,                         
                               ,,#################################,,                 
                          ,,##########################################,,             
                       ,#########################################, ''#####,          
                    ,#############################################,,   '####,        
                  ,##################################################,,,,####,       
                ,###########''''           ''''###############################       
              ,#####''   ,,,,##########,,,,          '''####'''          '####       
            ,##' ,,,,###########################,,,                        '##       
           ' ,,###''''                  '''############,,,                           
         ,,##''                                '''############,,,,        ,,,,,,###''
      ,#''                                            '''#######################'''  
     '                                                          ''''####''''         
             ,#######,   #######,   ,#######,      ##                                
            ,#'     '#,  ##    ##  ,#'     '#,    #''#        ,####,   ,####,        
            ##       ##  ##   ,#'  ##            #'  '#       #'       #'  '#        
            ##       ##  #######   ##           ,######,      #####,   #    #        
            '#,     ,#'  ##    ##  '#,     ,#' ,#      #,     #,   #   #,  ,#        
             '#######'   ##     ##  '#######'  #'      '#     '####' # '####'        



                #########################################################
                #                        -***-                          #
                #          Department of theory and spectroscopy        #
                #                                                       #
                #                      Frank Neese                      #
                #                                                       #
                #     Directorship, Architecture, Infrastructure        #
                #                    SHARK, DRIVERS                     #
                #        Core code/Algorithms in most modules           #
                #                                                       #
                #        Max Planck Institute fuer Kohlenforschung      #
                #                Kaiser Wilhelm Platz 1                 #
                #                 D-45470 Muelheim/Ruhr                 #
                #                      Germany                          #
                #                                                       #
                #                  All rights reserved                  #
                #                        -***-                          #
                #########################################################


                         Program Version 6.0.1  -  RELEASE   -


 With contributions from (in alphabetic order):
[Max-Planck-Institut fuer Kohlenforschung]                               
  Daniel Aravena         : Magnetic Suceptibility                        
  Michael Atanasov       : Ab Initio Ligand Field Theory (pilot matlab implementation)
  Alexander A. Auer      : GIAO ZORA, VPT2 properties, NMR spectrum      
  Ute Becker             : All parallelization in ORCA, NUMFREQ, NUMCALC 
  Giovanni Bistoni       : ED, misc. LED, open-shell LED, HFLD           
  Martin Brehm           : Molecular dynamics                            
  Dmytro Bykov           : pre 5.0 version of the SCF Hessian            
  Marcos Casanova-Páez   : Triplet and SCS-CIS(D). UHF-(DLPNO)-IP/EA/STEOM-CCSD. UHF-CVS-IP/STEOM-CCSD   
  Vijay G. Chilkuri      : MRCI spin determinant printing, contributions to CSF-ICE 
  Pauline Colinet        : FMM embedding                                 
  Dipayan Datta          : RHF DLPNO-CCSD density                        
  Achintya Kumar Dutta   : EOM-CC, STEOM-CC                              
  Nicolas Foglia         : Exact transition moments, OPA infrastructure, MCD improvements    
  Dmitry Ganyushin       : Spin-Orbit,Spin-Spin,Magnetic field MRCI      
  Miquel Garcia-Rates    : C-PCM and meta-GGA Hessian, CCSD/C-PCM, Gaussian charge scheme 
  Tiago L. C. Gouveia    : GS-ROHF, GS-ROCIS                             
  Yang Guo               : DLPNO-NEVPT2, F12-NEVPT2, CIM, IAO-localization        
  Andreas Hansen         : Spin unrestricted coupled pair/coupled cluster methods 
  Ingolf Harden          : AUTO-CI MPn and infrastructure                
  Benjamin Helmich-Paris : MC-RPA, TRAH-(SCF,CASSCF), AVAS, COSX integrals, SCF dyn. polar. 
  Lee Huntington         : MR-EOM, pCC                                   
  Robert Izsak           : Overlap fitted RIJCOSX, COSX-SCS-MP3, EOM     
  Riya Kayal             : Wick's Theorem for AUTO-CI, AUTO-CI UHF-CCSDT 
  Emily Kempfer          : AUTO-CI, RHF CISDT and CCSDT                  
  Christian Kollmar      : KDIIS, OOCD, Brueckner-CCSD(T), CCSD density, CASPT2, CASPT2-K, improved NEVPT2 
  Axel Koslowski         : Symmetry handling                             
  Simone Kossmann        : meta-GGA functionals, TD-DFT gradient, OOMP2, (MP2 Hessian; deprecated post 5.0) 
  Lucas Lang             : DCDCAS                                        
  Marvin Lechner         : AUTO-CI (C++ implementation), FIC-MRCC        
  Spencer Leger          : CASSCF response                               
  Dagmar Lenk            : GEPOL surface, SMD, ORCA-2-JSON               
  Dimitrios Liakos       : Extrapolation schemes; Compound Job, initial MDCI parallelization 
  Dimitrios Manganas     : Further ROCIS development; embedding schemes. LFT, Crystal Embedding 
  Dimitrios Pantazis     : SARC Basis sets                               
  Anastasios Papadopoulos: AUTO-CI, single reference methods and gradients 
  Taras Petrenko         : pre 6.0 DFT Hessian and TD-DFT gradient, (ASA, deprecated), ECA, 1-Electron XAS/XES, NRVS 
  Peter Pinski           : DLPNO-MP2, DLPNO-MP2 Gradient                 
  Christoph Reimann      : Effective Core Potentials                     
  Marius Retegan         : Local ZFS, SOC                                
  Christoph Riplinger    : Optimizer, TS searches, QM/MM, DLPNO-CCSD(T), (RO)-DLPNO pert. Triples 
  Michael Roemelt        : Original ROCIS implementation                 
  Masaaki Saitow         : Open-shell DLPNO-CCSD energy and density      
  Barbara Sandhoefer     : DKH picture change effects                    
  Kantharuban Sivalingam : CASSCF convergence/infrastructure, NEVPT2 and variants, FIC-MRCI 
  Bernardo de Souza      : ESD, SOC TD-DFT                               
  Georgi L. Stoychev     : AutoAux, RI-MP2 NMR, DLPNO-MP2 response, X2C  
  Van Anh Tran           : RI-MP2 g-tensors                              
  Willem Van den Heuvel  : Paramagnetic NMR                              
  Zikuan Wang            : NOTCH, Electric field optimization            
  Frank Wennmohs         : Technical directorship and infrastructure     
  Hang Xu                : AUTO-CI-Response properties                   
                                                                         
[FACCTs GmbH]                                                            
  Markus Bursch, Miquel Garcia-Rates, Christoph Riplinger, Bernardo de Souza, Georgi L. Stoychev 
                                                                 
  APM, Basis sets (HGBS, AHGBS, def-TZVP (Ac-Lr), def2-XVPD (La-Lu)), CI-OPT, improved COSX, DLPNO-Multilevel,           
  DOCKER, DRACO, updates on ESD, GOAT, IRC, LR-CPCM, MBIS, meta-GGA TD-DFT gradient, ML-optimized integration grids, 
  MM, NACMEs, nearIR, NEB, NEB-TS, NL-DFT gradient (VV10), 2- and 3-layer-ONIOM, interface openCOSMO-RS, QMMM,   
  Crystal-QMMM, SF, symmetry and pop. for TD-DFT, r2SCAN hybrids, SOLVATOR                                   
                                                                         
[Other institutions]                                                     
  V. Asgeirsson          : NEB                                           
  Christoph Bannwarth    : sTDA-DFT, sTD-DFT, PBEh-3c, B97-3c, D3        
  Sebastian Ehlert       : rSCAN, r2SCAN, r2SCAN-3c, D4, dhf basis sets  
  Marvin Friede          : D4 for Fr, Ra, Ac-Lr                          
  Lars Goerigk           : TD-DFT with DH, B97 family of functionals     
  Stefan Grimme          : VdW corrections, initial TS optimization, DFT functionals, gCP, sTDA/sTD-DF 
  Waldemar Hujo          : DFT-NL                                        
  H. Jonsson             : NEB                                           
  Holger Kruse           : gCP                                           
  Marcel Mueller         : wB97X-3c, vDZP basis set                      
  Hagen Neugebauer       : wr2SCAN                                       
  Tobias Risthaus        : range-separated hybrid DFT                    
  Lukas Wittmann         : regularized MP2, r2SCAN double-hybrids, wr2SCAN        
                                                                         
We gratefully acknowledge several colleagues who have allowed us to      
interface, adapt or use parts of their codes:                            
  Ed Valeev, F. Pavosevic, A. Kumar             : LibInt (2-el integral package), F12 methods 
  Garnet Chan, S. Sharma, J. Yang, R. Olivares  : DMRG                   
  Ulf Ekstrom                                   : XCFun DFT Library      
  Mihaly Kallay                                 : mrcc  (arbitrary order and MRCC methods)
  Frank Weinhold                                : gennbo (NPA and NBO analysis)           
  Simon Mueller                                 : openCOSMO-RS                            
  Christopher J. Cramer and Donald G. Truhlar   : smd solvation model                     
  S Lehtola, MJT Oliveira, MAL Marques          : LibXC Library                           
  Liviu Ungur et al                             : ANISO software                          


 Your calculation uses the libint2 library for the computation of 2-el integrals
 For citations please refer to: http://libint.valeyev.net

 Your ORCA version has been built with support for libXC version: 6.2.2
 For citations please refer to: https://libxc.gitlab.io

 This ORCA versions uses:
   CBLAS   interface :  Fast vector & matrix operations
   LAPACKE interface :  Fast linear algebra routines
   SCALAPACK package :  Parallel linear algebra routines
   Shared memory     :  Shared parallel matrices


Reading of a custom orbital basis requested
Basis file: /Users/johannes/Documents/Uni/BasisSets/cc-pvdz.bas
Basis read successfully!



***************************************
The coordinates will be read from file: anthracene_opt_MP2_cc-pvdz.xyz
***************************************


================================================================================

----- Orbital basis set information -----
Basis read from file: /Users/johannes/Documents/Uni/BasisSets/cc-pvdz.bas

================================================================================
                                        WARNINGS
                       Please study these warnings very carefully!
================================================================================

WARNING: Old DensityContainer found on disk!
         Will remove this file - 
         If you want to keep old densities, please start your calculation with a different basename. 


IMPORTANT NOTE: CASSCF must signal convergence for a subsequent CASPT2/NEVPT2! 
                Set maxiter=1 to run CASPT2/NEVPT2 with arbitrary orbitals.


================================================================================
                                       INPUT FILE
================================================================================
NAME = orca.inp
|  1> ! PAL8 nopop tightscf printmos RHF
|  2> %basis
|  3> GTOName = "/Users/johannes/Documents/Uni/BasisSets/cc-pvdz.bas"
|  4> end
|  5> %CASSCF
|  6> nel 2
|  7> norb 2
|  8> PTmethod sc_NEVPT2
|  9> nroots 3
| 10> end
| 11> * xyzfile 0 1 anthracene_opt_MP2_cc-pvdz.xyz
| 12> 
| 13>                          ****END OF INPUT****
================================================================================

                       ****************************
                       * Single Point Calculation *
                       ****************************

---------------------------------
CARTESIAN COORDINATES (ANGSTROEM)
---------------------------------
  C     -3.681166    0.714936    0.000000
  C     -2.487150    1.415846    0.000000
  C     -1.230655    0.725709   -0.000000
  C     -1.230655   -0.725709   -0.000000
  C     -2.487150   -1.415846   -0.000000
  C     -3.681166   -0.714936    0.000000
  C      0.000000    1.414441   -0.000000
  C      1.230655    0.725709   -0.000000
  C      0.000000   -1.414441   -0.000000
  C      1.230655   -0.725709    0.000000
  C      2.487150    1.415846   -0.000000
  C      3.681166    0.714936    0.000000
  C      3.681166   -0.714936    0.000000
  C      2.487150   -1.415846    0.000000
  H     -4.633029    1.256842    0.000000
  H     -2.485913    2.512365    0.000000
  H     -2.485913   -2.512365   -0.000000
  H     -4.633029   -1.256842    0.000000
  H      0.000000    2.512374   -0.000000
  H     -0.000000   -2.512374   -0.000000
  H      2.485913    2.512365   -0.000000
  H      4.633029    1.256842    0.000000
  H      4.633029   -1.256842    0.000000
  H      2.485913   -2.512365    0.000000

----------------------------
CARTESIAN COORDINATES (A.U.)
----------------------------
  NO LB      ZA    FRAG     MASS         X           Y           Z
   0 C     6.0000    0    12.011   -6.956396    1.351033    0.000000
   1 C     6.0000    0    12.011   -4.700033    2.675561    0.000000
   2 C     6.0000    0    12.011   -2.325601    1.371391   -0.000000
   3 C     6.0000    0    12.011   -2.325601   -1.371391   -0.000000
   4 C     6.0000    0    12.011   -4.700033   -2.675561   -0.000000
   5 C     6.0000    0    12.011   -6.956396   -1.351033    0.000000
   6 C     6.0000    0    12.011    0.000000    2.672906   -0.000000
   7 C     6.0000    0    12.011    2.325601    1.371391   -0.000000
   8 C     6.0000    0    12.011    0.000000   -2.672906   -0.000000
   9 C     6.0000    0    12.011    2.325601   -1.371391    0.000000
  10 C     6.0000    0    12.011    4.700033    2.675561   -0.000000
  11 C     6.0000    0    12.011    6.956395    1.351033    0.000000
  12 C     6.0000    0    12.011    6.956396   -1.351033    0.000000
  13 C     6.0000    0    12.011    4.700033   -2.675561    0.000000
  14 H     1.0000    0     1.008   -8.755157    2.375086    0.000000
  15 H     1.0000    0     1.008   -4.697695    4.747681    0.000000
  16 H     1.0000    0     1.008   -4.697695   -4.747681   -0.000000
  17 H     1.0000    0     1.008   -8.755157   -2.375086    0.000000
  18 H     1.0000    0     1.008    0.000000    4.747698   -0.000000
  19 H     1.0000    0     1.008   -0.000000   -4.747698   -0.000000
  20 H     1.0000    0     1.008    4.697695    4.747681   -0.000000
  21 H     1.0000    0     1.008    8.755157    2.375086    0.000000
  22 H     1.0000    0     1.008    8.755157   -2.375086    0.000000
  23 H     1.0000    0     1.008    4.697695   -4.747681    0.000000

--------------------------------
INTERNAL COORDINATES (ANGSTROEM)
--------------------------------
 C      0   0   0     0.000000000000     0.00000000     0.00000000
 C      1   0   0     1.384539036870     0.00000000     0.00000000
 C      2   1   0     1.433551156399   120.80821912     0.00000000
 C      3   2   1     1.451418142979   118.77802705     0.00000000
 C      4   3   2     1.433551160403   118.77802583     0.00000000
 C      5   4   3     1.384539043361   120.80822000     0.00000000
 C      3   2   1     1.410270888154   121.98856234   180.00000598
 C      7   3   2     1.410270883059   121.53317430   179.99999565
 C      4   3   2     1.410270895661   119.23341540   180.00000533
 C      9   4   3     1.410270882273   121.53317368     0.00000000
 C      8   7   3     1.433551130172   121.98855841   180.00000226
 C     11   8   7     1.384539016372   120.80821775   179.99999440
 C     12  11   8     1.429871253400   120.41375709     0.00000000
 C     13  12  11     1.384539024788   120.41375328     0.00000000
 H      1   2   3     1.095310957566   119.93292450   179.99999879
 H      2   1   3     1.096519714722   120.47840173   180.00000270
 H      5   4   3     1.096519712540   118.71337793   179.99999879
 H      6   5   4     1.095310979485   119.93292637   180.00000391
 H      7   3   2     1.097932361516   119.23341482     0.00000000
 H      9   4   3     1.097932355026   119.23341157   179.99999669
 H     11   8   7     1.096519715804   118.71338160     0.00000000
 H     12  11   8     1.095310962656   119.93292439   179.99999809
 H     13  12  11     1.095310996024   119.65331942   179.99999879
 H     14  13  12     1.096519705580   120.47840240   180.00000226

---------------------------
INTERNAL COORDINATES (A.U.)
---------------------------
 C      0   0   0     0.000000000000     0.00000000     0.00000000
 C      1   0   0     2.616399601408     0.00000000     0.00000000
 C      2   1   0     2.709019084560   120.80821912     0.00000000
 C      3   2   1     2.742782796034   118.77802705     0.00000000
 C      4   3   2     2.709019092126   118.77802583     0.00000000
 C      5   4   3     2.616399613674   120.80822000     0.00000000
 C      3   2   1     2.665025753253   121.98856234   180.00000598
 C      7   3   2     2.665025743624   121.53317430   179.99999565
 C      4   3   2     2.665025767439   119.23341540   180.00000533
 C      9   4   3     2.665025742139   121.53317368     0.00000000
 C      8   7   3     2.709019034999   121.98855841   180.00000226
 C     11   8   7     2.616399562672   120.80821775   179.99999440
 C     12  11   8     2.702065075693   120.41375709     0.00000000
 C     13  12  11     2.616399578575   120.41375328     0.00000000
 H      1   2   3     2.069837741283   119.93292450   179.99999879
 H      2   1   3     2.072121961269   120.47840173   180.00000270
 H      5   4   3     2.072121957147   118.71337793   179.99999879
 H      6   5   4     2.069837782704   119.93292637   180.00000391
 H      7   3   2     2.074791476834   119.23341482     0.00000000
 H      9   4   3     2.074791464571   119.23341157   179.99999669
 H     11   8   7     2.072121963314   118.71338160     0.00000000
 H     12  11   8     2.069837750902   119.93292439   179.99999809
 H     13  12  11     2.069837813958   119.65331942   179.99999879
 H     14  13  12     2.072121943995   120.47840240   180.00000226

---------------------
BASIS SET INFORMATION
---------------------
There are 2 groups of distinct atoms

 Group   1 Type C   : 19s5p1d contracted to 3s2p1d pattern {991/41/1}
 Group   2 Type H   : 5s1p contracted to 2s1p pattern {41/1}

Atom   0C    basis set group =>   1
Atom   1C    basis set group =>   1
Atom   2C    basis set group =>   1
Atom   3C    basis set group =>   1
Atom   4C    basis set group =>   1
Atom   5C    basis set group =>   1
Atom   6C    basis set group =>   1
Atom   7C    basis set group =>   1
Atom   8C    basis set group =>   1
Atom   9C    basis set group =>   1
Atom  10C    basis set group =>   1
Atom  11C    basis set group =>   1
Atom  12C    basis set group =>   1
Atom  13C    basis set group =>   1
Atom  14H    basis set group =>   2
Atom  15H    basis set group =>   2
Atom  16H    basis set group =>   2
Atom  17H    basis set group =>   2
Atom  18H    basis set group =>   2
Atom  19H    basis set group =>   2
Atom  20H    basis set group =>   2
Atom  21H    basis set group =>   2
Atom  22H    basis set group =>   2
Atom  23H    basis set group =>   2

Checking for AutoStart:
The File: orca.gbw exists
Trying to determine its content:
     ... Fine, the file contains calculation information
     ... Fine, the calculation information was read
     ... Fine, the file contains a basis set
     ... Fine, the basis set was read
     ... Fine, the file contains a geometry
     ... Fine, the geometry was read
     ... Fine, the file contains a set of orbitals
     ... Fine, the orbitals can be read
     => possible old guess file was deleted
     => GBW file was renamed to GES file
     => GES file is set as startup file
     => Guess is set to MORead
     ... now leaving AutoStart



           ************************************************************
           *        Program running with 8 parallel MPI-processes     *
           *              working on a common directory               *
           ************************************************************
------------------------------------------------------------------------------
                             ORCA STARTUP CALCULATIONS
------------------------------------------------------------------------------
------------------------------------------------------------------------------
                   ___                                                        
                  /   \      - P O W E R E D   B Y -                         
                 /     \                                                     
                 |  |  |   _    _      __       _____    __    __             
                 |  |  |  | |  | |    /  \     |  _  \  |  |  /  |          
                  \  \/   | |  | |   /    \    | | | |  |  | /  /          
                 / \  \   | |__| |  /  /\  \   | |_| |  |  |/  /          
                |  |  |   |  __  | /  /__\  \  |    /   |      \           
                |  |  |   | |  | | |   __   |  |    \   |  |\   \          
                \     /   | |  | | |  |  |  |  | |\  \  |  | \   \       
                 \___/    |_|  |_| |__|  |__|  |_| \__\ |__|  \__/        
                                                                              
                      - O R C A' S   B I G   F R I E N D -                    
                                      &                                       
                       - I N T E G R A L  F E E D E R -                       
                                                                              
 v1 FN, 2020, v2 2021, v3 2022-2024                                           
------------------------------------------------------------------------------


----------------------
SHARK INTEGRAL PACKAGE
----------------------

Number of atoms                             ...     24
Number of basis functions                   ...    344
Number of shells                            ...    212
Maximum angular momentum                    ...      2
Integral batch strategy                     ... SHARK/LIBINT Hybrid
RI-J (if used) integral strategy            ... SPLIT-RIJ (Revised 2003 algorithm where possible)
Printlevel                                  ...      1
Contraction scheme used                     ... PARTIAL GENERAL contraction
Prescreening option                         ... SCHWARTZ
   Thresh                                   ... 2.500e-11
   Tcut                                     ... 2.500e-12
   Tpresel                                  ... 2.500e-12 
Coulomb Range Separation                    ... NOT USED
Exchange Range Separation                   ... NOT USED
Multipole approximations                    ... NOT USED
Finite Nucleus Model                        ... NOT USED
CABS basis                                  ... NOT available
Auxiliary Coulomb fitting basis             ... NOT available
Auxiliary J/K fitting basis                 ... NOT available
Auxiliary Correlation fitting basis         ... NOT available
Auxiliary 'external' fitting basis          ... NOT available

Checking pre-screening integrals            ... done (  0.0 sec) Dimension = 212
Save PGC pre-screening integrals            ... done (  0.0 sec) Dimension = 212
Calculate PGC overlap integrals             ... done (  0.0 sec) Dimension = 114
Calculating pre-screening integrals (ORCA)  ... done (  0.0 sec) Dimension = 114
Check shell pair data                       ... done (  0.0 sec)
Shell pair information
Shell pair cut-off parameter TPreSel        ...   2.5e-12
Total number of shell pairs                 ...     22578
Shell pairs after pre-screening             ...     15940
Total number of primitive shell pairs       ...     40614
Primitive shell pairs kept                  ...     26074
          la=0 lb=0:   7695 shell pairs
          la=1 lb=0:   5222 shell pairs
          la=1 lb=1:    698 shell pairs
          la=2 lb=0:   1740 shell pairs
          la=2 lb=1:    492 shell pairs
          la=2 lb=2:     93 shell pairs

Calculating one electron integrals          ... done (  0.0 sec)
Calculating Nuclear repulsion               ... done (  0.0 sec) ENN=    760.928144821001 Eh

Diagonalization of the overlap matrix:
Smallest eigenvalue                        ... 1.268e-04
Time for diagonalization                   ...    0.004 sec
Threshold for overlap eigenvalues          ... 1.000e-07
Number of eigenvalues below threshold      ... 0
Time for construction of square roots      ...    0.001 sec
Total time needed                          ...    0.006 sec

-------------------
DFT GRID GENERATION
-------------------

General Integration Accuracy     IntAcc      ... 4.388
Radial Grid Type                 RadialGrid  ... OptM3 with GC (2021)
Angular Grid (max. ang.)         AngularGrid ... 4 (Lebedev-302)
Angular grid pruning method      GridPruning ... 4 (adaptive)
Weight generation scheme         WeightScheme... mBecke (2022)
Basis function cutoff            BFCut       ... 1.0000e-11
Integration weight cutoff        WCut        ... 1.0000e-14
Partially contracted basis set               ... off
Rotationally invariant grid construction     ... off
Angular grids for H and He will be reduced by one unit

Total number of grid points                  ...   115684
Total number of batches                      ...     1822
Average number of points per batch           ...       63
Average number of grid points per atom       ...     4820

---------------------
SHARK GRID GENERATION
---------------------

General Integration Accuracy     IntAcc      ... 4.388
Radial Grid Type                 RadialGrid  ... OptM3 with GC (2021)
Angular Grid (max. ang.)         AngularGrid ... 4 (Lebedev-302)
Angular grid pruning method      GridPruning ... 4 (adaptive)
Weight generation scheme         WeightScheme... mBecke (2022)
Basis function cutoff            BFCut       ... 1.0000e-11
Integration weight cutoff        WCut        ... 1.0000e-14
Partially contracted basis set               ... off
Rotationally invariant grid construction     ... off
Angular grids for H and He will be reduced by one unit
Steep s-basis detected: some atoms will have their radial
                        grid points doubled.

Total number of grid points                  ...   200032
Total number of batches                      ...     3136
Average number of points per batch           ...       63
Average number of grid points per atom       ...     8335
Initializing property integral containers    ... done (  0.0 sec)

SHARK setup successfully completed in   1.8 seconds

Maximum memory used throughout the entire STARTUP-calculation: 51.3 MB


           ************************************************************
           *        Program running with 8 parallel MPI-processes     *
           *              working on a common directory               *
           ************************************************************
-------------------------------------------------------------------------------
                                 ORCA GUESS
                   Start orbitals & Density for SCF / CASSCF
-------------------------------------------------------------------------------

------------
SCF SETTINGS
------------
Hamiltonian:
 Ab initio Hamiltonian  Method          .... Hartree-Fock(GTOs)


General Settings:
 Integral files         IntName         .... orca
 Hartree-Fock type      HFTyp           .... CASSCF
 Total Charge           Charge          ....    0
 Multiplicity           Mult            ....    1
 Number of Electrons    NEL             ....   94
 Basis Dimension        Dim             ....  246
 Nuclear Repulsion      ENuc            ....    760.9281448210 Eh

---------------------
INITIAL GUESS: MOREAD
---------------------
Guess MOs are being read from file: orca.ges
Input Geometry matches current geometry (good)
Input basis set matches current basis set (good)
Occupation numbers will be reassigned to an Aufbau configuration
MOs were renormalized
Gram-Schmidt orthogonalization of all MOs with pivot on actives
                      ------------------
                      INITIAL GUESS DONE (   0.1 sec)
                      ------------------
             **** ENERGY FILE WAS UPDATED (orca.en.tmp) ****
Finished Guess after   0.1 sec
Maximum memory used throughout the entire GUESS-calculation: 18.8 MB


           ************************************************************
           *        Program running with 8 parallel MPI-processes     *
           *              working on a common directory               *
           ************************************************************
-------------------------------------------------------------------------------
                              ORCA-CASSCF
-------------------------------------------------------------------------------

Building the CAS space              ... done (3 configurations for Mult=1)
Memory for address arrays  		      ... done
Make address arrays			      ... done
Memory for buffers 			      ... done
Setting up spin-function prototypes	      ... (MAXOPEN=2) 0 2 4 done
Trivial cases - DOMO's			      ... done (  0.0 MB)
Number of open shells			    ...  0
domo->virtual excitations			... done (  0.0 MB)
domo->somo excitations				... done (  0.0 MB)
somo->virtual excitations			... done (  0.0 MB)
somo->somo excitations				... done (  0.0 MB)
Number of open shells			    ...  2
domo->virtual excitations			... done (  0.0 MB)
domo->somo excitations				... done (  0.0 MB)
somo->virtual excitations			... done (  0.0 MB)
somo->somo excitations				... done (  0.0 MB)
Coupling container construction done

 CASSCF (estimated) memory needed     ... 5.8 MB
 NEVPT2 (estimated) memory needed     ... 59.3 MB


SYSTEM-SPECIFIC SETTINGS:
Number of active electrons          ...    2
Number of active orbitals           ...    2
Total number of electrons           ...   94
Total number of orbitals            ...  246

Determined orbital ranges:
   Internal       0 -   45 (  46 orbitals)
   Active        46 -   47 (   2 orbitals)
   External      48 -  245 ( 198 orbitals)
Number of rotation parameters      ...   9596

CI-STEP:
CI strategy                         ... General CI
Number of multiplicity blocks       ...    1
BLOCK  0 WEIGHT=   1.0000
  Multiplicity                      ...    1
  #(Configurations)                 ...    3
  #(CSFs)                           ...    3
  #(Roots)                          ...    3
    ROOT=0 WEIGHT=    0.333333
    ROOT=1 WEIGHT=    0.333333
    ROOT=2 WEIGHT=    0.333333

  PrintLevel                        ...    1
  N(GuessMat)                       ...      2048
  MaxDim(CI)                        ...        10
  MaxIter(CI)                       ...        64
  Energy Tolerance CI               ...  2.50e-09
  Residual Tolerance CI             ...  2.50e-09
  Shift(CI)                         ...  1.00e-04

INTEGRAL-TRANSFORMATION-STEP:
  Algorithm                         ... EXACT

ORBITAL-IMPROVEMENT-STEP:
  Algorithm                         ... SuperCI(PT)
  Default Parametrization           ... CAYLEY
  Act-Act rotations                 ... depends on algorithm used

  Note: SuperCI(PT) will ignore FreezeIE, FreezeAct and FreezeGrad. In general Default settings are encouraged.
        In conjunction with ShiftUp, ShiftDn or GradScaling the performance of SuperCI(PT) is less optimal.  

  MaxRot                            ... 2.00e-01 
  Max. no of vectors (DIIS)         ... 15
  DThresh (cut-off) metric          ... 1.00e-06
  Switch step at gradient           ...  3.00e-02 
  Switch step at iteration          ...        50   
  Switch step to                    ... SuperCI(PT)    

SCF-SETTINGS:
  Incremental                       ... on
  RIJCOSX approximation             ... off
  RI-JK approximation               ... off
  AO integral handling              ... DIRECT
  Integral Neglect Thresh           ...  2.50e-11
  Primitive cutoff TCut             ...  2.50e-12
  Energy convergence tolerance      ...  2.50e-08
  Orbital gradient convergence      ...  2.50e-04
  Max. number of iterations         ...        75  

PT2-SETTINGS:
  A PT2 calculation will be performed on top of the CASSCF wave function (PT2 = SC-NEVPT2)   
 CI step strategy                   ... General CI
  D4C handling                      ... PS approximation (factorized) 
  CI truncation for D4C at          ...  1.00e-12
  CI truncation for D3  at          ...  1.00e-14
  Orbitals                          ... canonical for each state 
  Last  frozen  orbital             ... 13
  First deleted orbital             ... 246

FINAL ORBITALS:
  Active   Orbitals                 ... natural 
  Internal Orbitals                 ... canonical 
  External Orbitals                 ... canonical 

------------------
CAS-SCF ITERATIONS
------------------


MACRO-ITERATION   1: 
   --- Inactive Energy E0 = -535.31837762 Eh
CI-ITERATION   0: 
  -536.036338451   0.000000000001 (    0.00)
  -535.849350437   0.000000000000
  -535.731650649   0.000000000000
   CI-PROBLEM SOLVED
   DENSITIES MADE

                 <<<<<<<<<<<<<<<<<<INITIAL CI STATE CHECK>>>>>>>>>>>>>>>>>>

BLOCK  0 MULT= 1 NROOTS= 3 
ROOT   0:  E=    -536.0363384507 Eh
      0.98478 [     0]: 20
      0.01522 [     2]: 02
ROOT   1:  E=    -535.8493504365 Eh  5.088 eV  41039.1 cm**-1
      1.00000 [     1]: 11
ROOT   2:  E=    -535.7316506490 Eh  8.291 eV  66871.2 cm**-1
      0.98478 [     2]: 02
      0.01522 [     0]: 20

                 <<<<<<<<<<<<<<<<<<INITIAL CI STATE CHECK>>>>>>>>>>>>>>>>>>

   E(CAS)=  -535.872446512 Eh DE=    0.000000e+00
   --- Energy gap subspaces: Ext-Act = 0.144   Act-Int = 0.139
   N(occ)=  1.00000 1.00000
   ||g|| =     1.462713e-01 Max(G)=    6.230632e-02 Rot=48,44
   --- Orbital Update [SuperCI(PT)]
   --- Canonicalize Internal Space
   --- Canonicalize External Space
   --- SX_PT (Skipped TA=0 IT=0): ||X|| =      0.068930784 Max(X)(48,44) =     -0.035118789 
   --- SFit(Active Orbitals)

MACRO-ITERATION   2: 
   --- Inactive Energy E0 = -535.32471158 Eh
CI-ITERATION   0: 
  -536.033207895   0.000000000000 (    0.00)
  -535.856221344   0.000000000000
  -535.743987216   0.000000000000
   CI-PROBLEM SOLVED
   DENSITIES MADE
   E(CAS)=  -535.877805485 Eh DE=   -5.358973e-03
   --- Energy gap subspaces: Ext-Act = 0.147   Act-Int = 0.144
   N(occ)=  1.00000 1.00000
   ||g|| =     6.126652e-02 Max(G)=   -3.284545e-02 Rot=49,45
   --- Orbital Update [SuperCI(PT)]
   --- Canonicalize Internal Space
   --- Canonicalize External Space
   --- SX_PT (Skipped TA=0 IT=0): ||X|| =      0.031107377 Max(X)(49,45) =      0.018424479 
   --- SFit(Active Orbitals)

MACRO-ITERATION   3: 
   --- Inactive Energy E0 = -535.32140273 Eh
CI-ITERATION   0: 
  -536.031030270   0.000000000001 (    0.00)
  -535.857517845   0.000000000000
  -535.748411514   0.000000000000
   CI-PROBLEM SOLVED
   DENSITIES MADE
   E(CAS)=  -535.878986543 Eh DE=   -1.181058e-03
   --- Energy gap subspaces: Ext-Act = 0.149   Act-Int = 0.145
   N(occ)=  1.00000 1.00000
   ||g|| =     4.410885e-02 Max(G)=    1.733591e-02 Rot=48,44
   --- Orbital Update [SuperCI(PT)]
   --- Canonicalize Internal Space
   --- Canonicalize External Space
   --- SX_PT (Skipped TA=0 IT=0): ||X|| =      0.018160445 Max(X)(48,44) =      0.009732885 
   --- SFit(Active Orbitals)

MACRO-ITERATION   4: 
   --- Inactive Energy E0 = -535.32350117 Eh
CI-ITERATION   0: 
  -536.030042177   0.000000000000 (    0.00)
  -535.857618370   0.000000000000
  -535.750106321   0.000000000000
   CI-PROBLEM SOLVED
   DENSITIES MADE
   E(CAS)=  -535.879255623 Eh DE=   -2.690796e-04
   --- Energy gap subspaces: Ext-Act = 0.149   Act-Int = 0.146
   N(occ)=  1.00000 1.00000
   ||g|| =     1.430581e-02 Max(G)=   -6.570892e-03 Rot=49,45
   --- Orbital Update [SuperCI(PT)]
   --- Canonicalize Internal Space
   --- Canonicalize External Space
   --- SX_PT (Skipped TA=0 IT=0): ||X|| =      0.007017264 Max(X)(46,43) =      0.003794164 
   --- SFit(Active Orbitals)

MACRO-ITERATION   5: 
   --- Inactive Energy E0 = -535.32295594 Eh
CI-ITERATION   0: 
  -536.029645366   0.000000000000 (    0.00)
  -535.857413669   0.000000000000
  -535.750859542   0.000000000000
   CI-PROBLEM SOLVED
   DENSITIES MADE
   E(CAS)=  -535.879306193 Eh DE=   -5.056984e-05
   --- Energy gap subspaces: Ext-Act = 0.149   Act-Int = 0.147
   N(occ)=  1.00000 1.00000
   ||g|| =     7.599704e-03 Max(G)=    1.355162e-03 Rot=48,44
   --- Orbital Update [SuperCI(PT)]
   --- Canonicalize Internal Space
   --- Canonicalize External Space
   --- SX_PT (Skipped TA=0 IT=0): ||X|| =      0.001925908 Max(X)(48,44) =      0.000752268 
   --- SFit(Active Orbitals)

MACRO-ITERATION   6: 
   --- Inactive Energy E0 = -535.32304148 Eh
CI-ITERATION   0: 
  -536.029636053   0.000000000000 (    0.00)
  -535.857367526   0.000000000000
  -535.750928458   0.000000000000
   CI-PROBLEM SOLVED
   DENSITIES MADE
   E(CAS)=  -535.879310679 Eh DE=   -4.486598e-06
   --- Energy gap subspaces: Ext-Act = 0.149   Act-Int = 0.147
   N(occ)=  1.00000 1.00000
   ||g|| =     1.049299e-03 Max(G)=   -2.621294e-04 Rot=49,45
   --- Orbital Update [SuperCI(PT)]
   --- Canonicalize Internal Space
   --- Canonicalize External Space
   --- SX_PT (Skipped TA=0 IT=0): ||X|| =      0.000420196 Max(X)(50,47) =     -0.000273838 
   --- SFit(Active Orbitals)

MACRO-ITERATION   7: 
   --- Inactive Energy E0 = -535.32299392 Eh
CI-ITERATION   0: 
  -536.029628345   0.000000000000 (    0.00)
  -535.857361332   0.000000000000
  -535.750942833   0.000000000000
   CI-PROBLEM SOLVED
   DENSITIES MADE
   E(CAS)=  -535.879310837 Eh DE=   -1.575140e-07
   --- Energy gap subspaces: Ext-Act = 0.149   Act-Int = 0.147
   N(occ)=  1.00000 1.00000
   ||g|| =     3.602477e-04 Max(G)=    1.044659e-04 Rot=48,44
   --- Orbital Update [SuperCI(PT)]
   --- Canonicalize Internal Space
   --- Canonicalize External Space
   --- SX_PT (Skipped TA=0 IT=0): ||X|| =      0.000225717 Max(X)(50,47) =     -0.000168577 
   --- SFit(Active Orbitals)

MACRO-ITERATION   8: 
   --- Inactive Energy E0 = -535.32305500 Eh
CI-ITERATION   0: 
  -536.029620333   0.000000000000 (    0.00)
  -535.857361539   0.000000000000
  -535.750950788   0.000000000000
   CI-PROBLEM SOLVED
   DENSITIES MADE
   E(CAS)=  -535.879310887 Eh DE=   -4.987407e-08
   --- Energy gap subspaces: Ext-Act = 0.149   Act-Int = 0.147
   N(occ)=  1.00000 1.00000
   ||g|| =     1.840733e-04 Max(G)=   -5.792245e-05 Rot=49,45
                     ---- THE CAS-SCF GRADIENT HAS CONVERGED ----
                            --- FINALIZING ORBITALS ---
                    ---- DOING ONE FINAL ITERATION FOR PRINTING ----
   --- Canonicalize Internal Space
   --- Canonicalize External Space

MACRO-ITERATION   9: 
   --- Inactive Energy E0 = -535.32305500 Eh
   --- All densities will be recomputed
CI-ITERATION   0: 
  -536.029620335   0.000000000000 (    0.00)
  -535.857361540   0.000000000000
  -535.750950789   0.000000000000
   CI-PROBLEM SOLVED
   DENSITIES MADE
   E(CAS)=  -535.879310888 Eh DE=   -1.474291e-09
   --- Energy gap subspaces: Ext-Act = 0.149   Act-Int = 0.147
   N(occ)=  1.00000 1.00000
   ||g|| =     1.840742e-04 Max(G)=   -5.738088e-05 Rot=49,45
--------------
CASSCF RESULTS
--------------

Final CASSCF energy       : -535.879310888 Eh  -14582.0174 eV

----------------
ORBITAL ENERGIES
----------------

  NO   OCC          E(Eh)            E(eV) 
   0   2.0000     -11.256133      -306.2950 
   1   2.0000     -11.255791      -306.2857 
   2   2.0000     -11.255536      -306.2787 
   3   2.0000     -11.254900      -306.2614 
   4   2.0000     -11.254264      -306.2441 
   5   2.0000     -11.254002      -306.2370 
   6   2.0000     -11.249160      -306.1052 
   7   2.0000     -11.249159      -306.1052 
   8   2.0000     -11.249108      -306.1038 
   9   2.0000     -11.249106      -306.1037 
  10   2.0000     -11.247044      -306.0476 
  11   2.0000     -11.247043      -306.0476 
  12   2.0000     -11.246105      -306.0221 
  13   2.0000     -11.246105      -306.0221 
  14   2.0000      -1.182239       -32.1704 
  15   2.0000      -1.141164       -31.0527 
  16   2.0000      -1.080348       -29.3978 
  17   2.0000      -1.062623       -28.9154 
  18   2.0000      -1.019962       -27.7546 
  19   2.0000      -1.003387       -27.3035 
  20   2.0000      -0.958673       -26.0868 
  21   2.0000      -0.877738       -23.8845 
  22   2.0000      -0.840778       -22.8787 
  23   2.0000      -0.813068       -22.1247 
  24   2.0000      -0.807739       -21.9797 
  25   2.0000      -0.743738       -20.2381 
  26   2.0000      -0.703511       -19.1435 
  27   2.0000      -0.683623       -18.6023 
  28   2.0000      -0.648638       -17.6503 
  29   2.0000      -0.635583       -17.2951 
  30   2.0000      -0.626918       -17.0593 
  31   2.0000      -0.613970       -16.7070 
  32   2.0000      -0.588003       -16.0004 
  33   2.0000      -0.578645       -15.7457 
  34   2.0000      -0.570417       -15.5218 
  35   2.0000      -0.546392       -14.8681 
  36   2.0000      -0.538419       -14.6511 
  37   2.0000      -0.534735       -14.5509 
  38   2.0000      -0.495791       -13.4912 
  39   2.0000      -0.488187       -13.2843 
  40   2.0000      -0.484522       -13.1845 
  41   2.0000      -0.471921       -12.8416 
  42   2.0000      -0.403696       -10.9851 
  43   2.0000      -0.395650       -10.7662 
  44   2.0000      -0.330687        -8.9985 
  45   2.0000      -0.315315        -8.5801 
  46   1.0000      -0.034130        -0.9287 
  47   1.0000      -0.168794        -4.5931 
  48   0.0000       0.115061         3.1310 
  49   0.0000       0.133402         3.6301 
  50   0.0000       0.180740         4.9182 
  51   0.0000       0.185717         5.0536 
  52   0.0000       0.187812         5.1106 
  53   0.0000       0.189689         5.1617 
  54   0.0000       0.218119         5.9353 
  55   0.0000       0.219030         5.9601 
  56   0.0000       0.219377         5.9695 
  57   0.0000       0.243323         6.6212 
  58   0.0000       0.244441         6.6516 
  59   0.0000       0.257855         7.0166 
  60   0.0000       0.279431         7.6037 
  61   0.0000       0.306614         8.3434 
  62   0.0000       0.338465         9.2101 
  63   0.0000       0.363006         9.8779 
  64   0.0000       0.396776        10.7968 
  65   0.0000       0.423314        11.5190 
  66   0.0000       0.424216        11.5435 
  67   0.0000       0.428595        11.6627 
  68   0.0000       0.458114        12.4659 
  69   0.0000       0.461414        12.5557 
  70   0.0000       0.466712        12.6999 
  71   0.0000       0.477837        13.0026 
  72   0.0000       0.504028        13.7153 
  73   0.0000       0.511813        13.9271 
  74   0.0000       0.587247        15.9798 
  75   0.0000       0.589812        16.0496 
  76   0.0000       0.626685        17.0530 
  77   0.0000       0.642057        17.4713 
  78   0.0000       0.662115        18.0171 
  79   0.0000       0.663025        18.0418 
  80   0.0000       0.664386        18.0789 
  81   0.0000       0.667792        18.1715 
  82   0.0000       0.684457        18.6250 
  83   0.0000       0.688507        18.7352 
  84   0.0000       0.697184        18.9713 
  85   0.0000       0.701352        19.0848 
  86   0.0000       0.704771        19.1778 
  87   0.0000       0.717927        19.5358 
  88   0.0000       0.726032        19.7563 
  89   0.0000       0.727850        19.8058 
  90   0.0000       0.732983        19.9455 
  91   0.0000       0.734912        19.9980 
  92   0.0000       0.737039        20.0559 
  93   0.0000       0.751769        20.4567 
  94   0.0000       0.753269        20.4975 
  95   0.0000       0.761298        20.7160 
  96   0.0000       0.764662        20.8075 
  97   0.0000       0.774253        21.0685 
  98   0.0000       0.784975        21.3603 
  99   0.0000       0.790079        21.4991 
 100   0.0000       0.794095        21.6084 
 101   0.0000       0.845904        23.0182 
 102   0.0000       0.846419        23.0322 
 103   0.0000       0.856160        23.2973 
 104   0.0000       0.862873        23.4800 
 105   0.0000       0.871161        23.7055 
 106   0.0000       0.876347        23.8466 
 107   0.0000       0.900417        24.5016 
 108   0.0000       0.901484        24.5306 
 109   0.0000       0.912900        24.8413 
 110   0.0000       0.916690        24.9444 
 111   0.0000       0.936306        25.4782 
 112   0.0000       0.946183        25.7470 
 113   0.0000       0.950391        25.8614 
 114   0.0000       0.982892        26.7459 
 115   0.0000       0.991614        26.9832 
 116   0.0000       0.997433        27.1415 
 117   0.0000       1.044360        28.4185 
 118   0.0000       1.061676        28.8897 
 119   0.0000       1.083047        29.4712 
 120   0.0000       1.091167        29.6922 
 121   0.0000       1.113835        30.3090 
 122   0.0000       1.120176        30.4815 
 123   0.0000       1.126244        30.6467 
 124   0.0000       1.130376        30.7591 
 125   0.0000       1.131364        30.7860 
 126   0.0000       1.139339        31.0030 
 127   0.0000       1.150598        31.3094 
 128   0.0000       1.153374        31.3849 
 129   0.0000       1.170875        31.8611 
 130   0.0000       1.182049        32.1652 
 131   0.0000       1.195899        32.5421 
 132   0.0000       1.208989        32.8983 
 133   0.0000       1.212990        33.0071 
 134   0.0000       1.228029        33.4164 
 135   0.0000       1.229300        33.4510 
 136   0.0000       1.238842        33.7106 
 137   0.0000       1.242274        33.8040 
 138   0.0000       1.272973        34.6393 
 139   0.0000       1.275593        34.7107 
 140   0.0000       1.293671        35.2026 
 141   0.0000       1.299395        35.3583 
 142   0.0000       1.314973        35.7822 
 143   0.0000       1.321881        35.9702 
 144   0.0000       1.329684        36.1825 
 145   0.0000       1.340278        36.4708 
 146   0.0000       1.385665        37.7059 
 147   0.0000       1.388241        37.7760 
 148   0.0000       1.406515        38.2732 
 149   0.0000       1.530920        41.6585 
 150   0.0000       1.533583        41.7309 
 151   0.0000       1.541501        41.9464 
 152   0.0000       1.614492        43.9326 
 153   0.0000       1.618625        44.0450 
 154   0.0000       1.625100        44.2212 
 155   0.0000       1.637442        44.5571 
 156   0.0000       1.655001        45.0349 
 157   0.0000       1.665842        45.3299 
 158   0.0000       1.688044        45.9340 
 159   0.0000       1.691179        46.0193 
 160   0.0000       1.724121        46.9157 
 161   0.0000       1.731374        47.1131 
 162   0.0000       1.734658        47.2024 
 163   0.0000       1.745403        47.4948 
 164   0.0000       1.767028        48.0833 
 165   0.0000       1.776255        48.3344 
 166   0.0000       1.776521        48.3416 
 167   0.0000       1.798446        48.9382 
 168   0.0000       1.825771        49.6818 
 169   0.0000       1.848811        50.3087 
 170   0.0000       1.856968        50.5307 
 171   0.0000       1.869212        50.8639 
 172   0.0000       1.876433        51.0603 
 173   0.0000       1.881702        51.2037 
 174   0.0000       1.900736        51.7216 
 175   0.0000       1.907621        51.9090 
 176   0.0000       1.910040        51.9748 
 177   0.0000       1.923193        52.3327 
 178   0.0000       1.941860        52.8407 
 179   0.0000       1.951556        53.1045 
 180   0.0000       1.958784        53.3012 
 181   0.0000       1.960053        53.3358 
 182   0.0000       1.973105        53.6909 
 183   0.0000       1.983786        53.9816 
 184   0.0000       1.987242        54.0756 
 185   0.0000       2.012827        54.7718 
 186   0.0000       2.023917        55.0736 
 187   0.0000       2.027850        55.1806 
 188   0.0000       2.031901        55.2908 
 189   0.0000       2.032022        55.2941 
 190   0.0000       2.038381        55.4672 
 191   0.0000       2.069674        56.3187 
 192   0.0000       2.095898        57.0323 
 193   0.0000       2.098967        57.1158 
 194   0.0000       2.109818        57.4111 
 195   0.0000       2.122109        57.7455 
 196   0.0000       2.136743        58.1437 
 197   0.0000       2.138185        58.1830 
 198   0.0000       2.152478        58.5719 
 199   0.0000       2.162502        58.8447 
 200   0.0000       2.166900        58.9643 
 201   0.0000       2.180198        59.3262 
 202   0.0000       2.218479        60.3679 
 203   0.0000       2.224540        60.5328 
 204   0.0000       2.243045        61.0364 
 205   0.0000       2.250367        61.2356 
 206   0.0000       2.250907        61.2503 
 207   0.0000       2.294193        62.4282 
 208   0.0000       2.308997        62.8310 
 209   0.0000       2.321690        63.1764 
 210   0.0000       2.324437        63.2512 
 211   0.0000       2.327272        63.3283 
 212   0.0000       2.328399        63.3589 
 213   0.0000       2.433016        66.2057 
 214   0.0000       2.464426        67.0605 
 215   0.0000       2.466598        67.1196 
 216   0.0000       2.468798        67.1794 
 217   0.0000       2.493926        67.8632 
 218   0.0000       2.502814        68.1050 
 219   0.0000       2.524940        68.7071 
 220   0.0000       2.582776        70.2809 
 221   0.0000       2.593660        70.5771 
 222   0.0000       2.622177        71.3531 
 223   0.0000       2.641066        71.8671 
 224   0.0000       2.710733        73.7628 
 225   0.0000       2.710831        73.7655 
 226   0.0000       2.744494        74.6815 
 227   0.0000       2.759001        75.0762 
 228   0.0000       2.764324        75.2211 
 229   0.0000       2.769938        75.3738 
 230   0.0000       2.890811        78.6630 
 231   0.0000       2.903035        78.9956 
 232   0.0000       2.939054        79.9757 
 233   0.0000       2.966350        80.7185 
 234   0.0000       3.011295        81.9415 
 235   0.0000       3.016787        82.0909 
 236   0.0000       3.060626        83.2839 
 237   0.0000       3.068389        83.4951 
 238   0.0000       3.094735        84.2120 
 239   0.0000       3.132023        85.2267 
 240   0.0000       3.204249        87.1921 
 241   0.0000       3.233728        87.9942 
 242   0.0000       3.285859        89.4128 
 243   0.0000       3.648637        99.2845 
 244   0.0000       3.870077       105.3102 
 245   0.0000       3.884459       105.7015 


---------------------------------------------
CAS-SCF STATES FOR BLOCK  0 MULT= 1 NROOTS= 3
---------------------------------------------

ROOT   0:  E=    -536.0296203348 Eh
      0.98324 [     2]: 02
      0.01676 [     0]: 20
ROOT   1:  E=    -535.8573615403 Eh  4.687 eV  37806.4 cm**-1
      1.00000 [     1]: 11
ROOT   2:  E=    -535.7509507891 Eh  7.583 eV  61160.9 cm**-1
      0.98324 [     0]: 20
      0.01676 [     2]: 02


--------------
DENSITY MATRIX
--------------

                  0          1    
      0       1.000000   0.000000
      1       0.000000   1.000000
Trace of the electron density:  2.000000

-----------------
ENERGY COMPONENTS
-----------------

One electron energy          :  -2233.873443383 Eh      -60786.7867 eV
Two electron energy          :    937.065987674 Eh       25498.8619 eV
Nuclear repulsion energy     :    760.928144821 Eh       20705.9075 eV
                               ----------------
                                 -535.879310888

Kinetic energy               :    535.032123973 Eh       14558.9643 eV
Potential energy             :  -1070.911434861 Eh      -29140.9816 eV
Virial ratio                 :     -2.001583432 
                               ----------------
                                 -535.879310888

Core energy                  :   -535.323055003 Eh   -14566.8809 eV


----------------------------
LOEWDIN REDUCED ACTIVE MOs  
----------------------------

                     42        43        44        45        46        47   
                  -0.40370  -0.39565  -0.33069  -0.31531  -0.03413  -0.16879
                   2.00000   2.00000   2.00000   2.00000   1.00000   1.00000
                  --------  --------  --------  --------  --------  --------
 0 C  pz             13.8       1.5       4.0      10.6       5.2       5.2
 1 C  pz              3.1       8.2      15.3       0.0       7.6       7.6
 2 C  pz              2.8       7.1       3.9      12.3       1.4       1.4
 3 C  pz              2.8       7.1       3.9      12.3       1.4       1.4
 4 C  pz              3.1       8.2      15.3       0.0       7.6       7.6
 5 C  pz             13.8       1.5       4.0      10.6       5.2       5.2
 6 C  pz              7.7      13.7       0.0       0.0      14.7      16.8
 7 C  pz              2.8       7.1       3.9      12.3       1.4       1.4
 8 C  pz              7.7      13.7       0.0       0.0      14.7      16.8
 9 C  pz              2.8       7.1       3.9      12.3       1.4       1.4
10 C  pz              3.1       8.2      15.3       0.0       7.6       7.6
11 C  pz             13.8       1.5       4.0      10.6       5.2       5.2
12 C  pz             13.8       1.5       4.0      10.6       5.2       5.2
13 C  pz              3.1       8.2      15.3       0.0       7.6       7.6

------------------
MOLECULAR ORBITALS
------------------
                      0         1         2         3         4         5   
                 -11.25613 -11.25579 -11.25554 -11.25490 -11.25426 -11.25400
                   2.00000   2.00000   2.00000   2.00000   2.00000   2.00000
                  --------  --------  --------  --------  --------  --------
  0C   1s        -0.001339  0.001708 -0.002087 -0.003168  0.001302 -0.002565
  0C   2s         0.000254 -0.000114 -0.000198 -0.000068 -0.000011  0.000085
  0C   3s        -0.000857  0.000224  0.002584  0.000600  0.000381 -0.001685
  0C   1pz       -0.000000  0.000000 -0.000000 -0.000000 -0.000000  0.000000
  0C   1px        0.000054 -0.000054  0.000034 -0.000007  0.000017 -0.000040
  0C   1py        0.000016 -0.000020  0.000017  0.000001  0.000025 -0.000011
  0C   2pz        0.000000 -0.000000 -0.000000  0.000000  0.000000  0.000000
  0C   2px       -0.000198  0.000006  0.001098  0.000199  0.000086 -0.000855
  0C   2py       -0.000345  0.000158 -0.000423 -0.000013  0.000099  0.000219
  0C   1dz2       0.000047 -0.000027 -0.000033  0.000023 -0.000011  0.000063
  0C   1dxz       0.000000 -0.000000  0.000000  0.000000 -0.000000  0.000000
  0C   1dyz       0.000000  0.000000 -0.000000 -0.000000 -0.000000  0.000000
  0C   1dx2y2    -0.000012  0.000006 -0.000031 -0.000016  0.000001  0.000010
  0C   1dxy       0.000008 -0.000012  0.000023 -0.000006  0.000005 -0.000028
  1C   1s        -0.030029  0.035491 -0.028522 -0.041927  0.021145 -0.032593
  1C   2s         0.000231  0.000002  0.000122 -0.000243  0.000210 -0.000440
  1C   3s        -0.001456  0.001101 -0.002998  0.000059 -0.000721  0.003375
  1C   1pz       -0.000000 -0.000000 -0.000000 -0.000000  0.000000  0.000000
  1C   1px        0.000039 -0.000002 -0.000010  0.000040 -0.000050  0.000077
  1C   1py       -0.000031  0.000043  0.000001 -0.000021  0.000019 -0.000033
  1C   2pz       -0.000000  0.000000  0.000000 -0.000000  0.000000 -0.000000
  1C   2px       -0.001344  0.000639  0.000385  0.000430  0.000260  0.000079
  1C   2py        0.000370 -0.000327  0.002108  0.000726  0.000353 -0.001204
  1C   1dz2      -0.000041  0.000097 -0.000055 -0.000179  0.000113 -0.000200
  1C   1dxz      -0.000000  0.000000 -0.000000 -0.000000  0.000000 -0.000000
  1C   1dyz       0.000000 -0.000000 -0.000000  0.000000 -0.000000  0.000000
  1C   1dx2y2    -0.000012  0.000006  0.000018  0.000045  0.000004  0.000028
  1C   1dxy      -0.000064  0.000089 -0.000058 -0.000071  0.000046 -0.000050
  2C   1s        -0.447919  0.499473 -0.382619 -0.499154  0.220695 -0.320524
  2C   2s        -0.003552  0.004481 -0.003720 -0.004796  0.002261 -0.003360
  2C   3s         0.004503 -0.006320  0.007256  0.008408 -0.004356  0.008110
  2C   1pz       -0.000000  0.000000 -0.000000 -0.000000  0.000000 -0.000000
  2C   1px        0.000018  0.000121  0.000009 -0.000087  0.000122 -0.000156
  2C   1py        0.000002  0.000019  0.000084  0.000082  0.000033  0.000031
  2C   2pz        0.000000 -0.000000  0.000000  0.000000 -0.000000  0.000000
  2C   2px       -0.000622 -0.000439 -0.003295  0.000197 -0.001807  0.005305
  2C   2py        0.000832 -0.001136 -0.004122 -0.003620 -0.000476 -0.001004
  2C   1dz2      -0.000009  0.000004  0.000060  0.000278 -0.000181  0.000443
  2C   1dxz       0.000000 -0.000000 -0.000000  0.000000 -0.000000  0.000000
  2C   1dyz      -0.000000  0.000000 -0.000000 -0.000000  0.000000 -0.000000
  2C   1dx2y2    -0.000104  0.000116 -0.000093 -0.000016  0.000097  0.000019
  2C   1dxy       0.000012  0.000002 -0.000009 -0.000030  0.000054 -0.000057
  3C   1s        -0.447920  0.499472  0.382620  0.499153  0.220695  0.320523
  3C   2s        -0.003552  0.004481  0.003720  0.004796  0.002261  0.003360
  3C   3s         0.004503 -0.006320 -0.007256 -0.008408 -0.004356 -0.008110
  3C   1pz        0.000000 -0.000000 -0.000000 -0.000000 -0.000000 -0.000000
  3C   1px        0.000018  0.000121 -0.000009  0.000087  0.000122  0.000156
  3C   1py       -0.000002 -0.000019  0.000084  0.000082 -0.000033  0.000031
  3C   2pz       -0.000000  0.000000  0.000000  0.000000  0.000000  0.000000
  3C   2px       -0.000622 -0.000439  0.003295 -0.000197 -0.001807 -0.005305
  3C   2py       -0.000832  0.001136 -0.004122 -0.003620  0.000476 -0.001004
  3C   1dz2      -0.000009  0.000004 -0.000060 -0.000278 -0.000181 -0.000443
  3C   1dxz      -0.000000 -0.000000 -0.000000 -0.000000 -0.000000  0.000000
  3C   1dyz      -0.000000  0.000000 -0.000000 -0.000000  0.000000  0.000000
  3C   1dx2y2    -0.000104  0.000116  0.000093  0.000016  0.000097 -0.000019
  3C   1dxy      -0.000012 -0.000002 -0.000009 -0.000030 -0.000054 -0.000057
  4C   1s        -0.030029  0.035491  0.028522  0.041927  0.021145  0.032592
  4C   2s         0.000231  0.000002 -0.000122  0.000243  0.000210  0.000440
  4C   3s        -0.001456  0.001101  0.002998 -0.000059 -0.000721 -0.003375
  4C   1pz       -0.000000  0.000000 -0.000000 -0.000000 -0.000000  0.000000
  4C   1px        0.000039 -0.000002  0.000010 -0.000040 -0.000050 -0.000077
  4C   1py        0.000031 -0.000043  0.000001 -0.000021 -0.000019 -0.000033
  4C   2pz        0.000000 -0.000000  0.000000  0.000000 -0.000000 -0.000000
  4C   2px       -0.001344  0.000639 -0.000385 -0.000430  0.000260 -0.000079
  4C   2py       -0.000370  0.000327  0.002108  0.000726 -0.000353 -0.001204
  4C   1dz2      -0.000041  0.000097  0.000055  0.000179  0.000113  0.000200
  4C   1dxz       0.000000 -0.000000 -0.000000 -0.000000  0.000000 -0.000000
  4C   1dyz       0.000000 -0.000000  0.000000  0.000000 -0.000000 -0.000000
  4C   1dx2y2    -0.000012  0.000006 -0.000018 -0.000045  0.000004 -0.000028
  4C   1dxy       0.000064 -0.000089 -0.000058 -0.000071 -0.000046 -0.000050
  5C   1s        -0.001339  0.001708  0.002087  0.003168  0.001302  0.002565
  5C   2s         0.000254 -0.000114  0.000198  0.000068 -0.000011 -0.000085
  5C   3s        -0.000857  0.000224 -0.002584 -0.000600  0.000381  0.001685
  5C   1pz        0.000000 -0.000000 -0.000000 -0.000000 -0.000000 -0.000000
  5C   1px        0.000054 -0.000054 -0.000034  0.000007  0.000017  0.000040
  5C   1py       -0.000016  0.000020  0.000017  0.000001 -0.000025 -0.000011
  5C   2pz       -0.000000  0.000000  0.000000  0.000000  0.000000 -0.000000
  5C   2px       -0.000198  0.000006 -0.001098 -0.000199  0.000086  0.000855
  5C   2py        0.000345 -0.000158 -0.000423 -0.000013 -0.000099  0.000219
  5C   1dz2       0.000047 -0.000027  0.000033 -0.000023 -0.000011 -0.000063
  5C   1dxz      -0.000000  0.000000  0.000000 -0.000000  0.000000 -0.000000
  5C   1dyz       0.000000  0.000000 -0.000000  0.000000  0.000000  0.000000
  5C   1dx2y2    -0.000012  0.000006  0.000031  0.000016  0.000001 -0.000010
  5C   1dxy      -0.000008  0.000012  0.000023 -0.000006 -0.000005 -0.000028
  6C   1s        -0.312908 -0.000000 -0.455153  0.000001 -0.635284  0.542760
  6C   2s        -0.001928  0.000000 -0.004062  0.000000 -0.006005  0.005631
  6C   3s         0.000441 -0.000000  0.008616 -0.000000  0.010162 -0.013986
  6C   1pz        0.000000  0.000000  0.000000  0.000000  0.000000 -0.000000
  6C   1px       -0.000000  0.000111  0.000000 -0.000126 -0.000000  0.000000
  6C   1py       -0.000104 -0.000000 -0.000044  0.000000  0.000021 -0.000038
  6C   2pz       -0.000000 -0.000000 -0.000000  0.000000 -0.000000  0.000000
  6C   2px        0.000000 -0.002296 -0.000000 -0.000610  0.000000  0.000000
  6C   2py        0.000113  0.000000 -0.000720  0.000000 -0.002194  0.004382
  6C   1dz2      -0.000024  0.000000 -0.000119 -0.000000  0.000395 -0.000452
  6C   1dxz      -0.000000 -0.000000 -0.000000  0.000000 -0.000000 -0.000000
  6C   1dyz       0.000000  0.000000  0.000000  0.000000 -0.000000 -0.000000
  6C   1dx2y2    -0.000009 -0.000000  0.000095 -0.000000  0.000044  0.000026
  6C   1dxy       0.000000 -0.000130 -0.000000  0.000139  0.000000 -0.000000
  7C   1s        -0.447917 -0.499473 -0.382620  0.499155  0.220695 -0.320524
  7C   2s        -0.003552 -0.004481 -0.003720  0.004796  0.002261 -0.003360
  7C   3s         0.004503  0.006320  0.007256 -0.008408 -0.004356  0.008110
  7C   1pz       -0.000000 -0.000000 -0.000000  0.000000  0.000000 -0.000000
  7C   1px       -0.000018  0.000121 -0.000009 -0.000087 -0.000122  0.000156
  7C   1py        0.000002 -0.000019  0.000084 -0.000082  0.000033  0.000031
  7C   2pz        0.000000  0.000000  0.000000 -0.000000 -0.000000  0.000000
  7C   2px        0.000622 -0.000439  0.003295  0.000197  0.001807 -0.005305
  7C   2py        0.000832  0.001136 -0.004122  0.003620 -0.000476 -0.001004
  7C   1dz2      -0.000009 -0.000004  0.000060 -0.000278 -0.000181  0.000443
  7C   1dxz      -0.000000  0.000000  0.000000  0.000000 -0.000000 -0.000000
  7C   1dyz      -0.000000 -0.000000  0.000000 -0.000000  0.000000  0.000000
  7C   1dx2y2    -0.000104 -0.000116 -0.000093  0.000016  0.000097  0.000019
  7C   1dxy      -0.000012  0.000002  0.000009 -0.000030 -0.000054  0.000057
  8C   1s        -0.312909 -0.000001  0.455152 -0.000000 -0.635285 -0.542759
  8C   2s        -0.001928 -0.000000  0.004062 -0.000000 -0.006005 -0.005631
  8C   3s         0.000441  0.000000 -0.008616  0.000000  0.010162  0.013986
  8C   1pz       -0.000000 -0.000000  0.000000  0.000000 -0.000000 -0.000000
  8C   1px       -0.000000  0.000111  0.000000  0.000126  0.000000 -0.000000
  8C   1py        0.000104  0.000000 -0.000044 -0.000000 -0.000021 -0.000038
  8C   2pz        0.000000  0.000000 -0.000000  0.000000  0.000000  0.000000
  8C   2px        0.000000 -0.002296 -0.000000  0.000610  0.000000 -0.000000
  8C   2py       -0.000113  0.000000 -0.000720  0.000000  0.002194  0.004382
  8C   1dz2      -0.000024 -0.000000  0.000119 -0.000000  0.000395  0.000452
  8C   1dxz       0.000000  0.000000 -0.000000  0.000000 -0.000000 -0.000000
  8C   1dyz       0.000000  0.000000 -0.000000  0.000000  0.000000  0.000000
  8C   1dx2y2    -0.000009  0.000000 -0.000095  0.000000  0.000044 -0.000026
  8C   1dxy      -0.000000  0.000130  0.000000  0.000139 -0.000000 -0.000000
  9C   1s        -0.447918 -0.499475  0.382618 -0.499154  0.220695  0.320524
  9C   2s        -0.003552 -0.004481  0.003720 -0.004796  0.002261  0.003360
  9C   3s         0.004503  0.006320 -0.007256  0.008408 -0.004356 -0.008110
  9C   1pz        0.000000  0.000000 -0.000000  0.000000 -0.000000 -0.000000
  9C   1px       -0.000018  0.000121  0.000009  0.000087 -0.000122 -0.000156
  9C   1py       -0.000002  0.000019  0.000084 -0.000082 -0.000033  0.000031
  9C   2pz       -0.000000 -0.000000  0.000000 -0.000000  0.000000  0.000000
  9C   2px        0.000622 -0.000439 -0.003295 -0.000197  0.001807  0.005305
  9C   2py       -0.000832 -0.001136 -0.004122  0.003620  0.000476 -0.001004
  9C   1dz2      -0.000009 -0.000004 -0.000060  0.000278 -0.000181 -0.000443
  9C   1dxz       0.000000 -0.000000  0.000000 -0.000000  0.000000  0.000000
  9C   1dyz      -0.000000 -0.000000 -0.000000  0.000000  0.000000 -0.000000
  9C   1dx2y2    -0.000104 -0.000116  0.000093 -0.000016  0.000097 -0.000019
  9C   1dxy       0.000012 -0.000002  0.000009 -0.000030  0.000054  0.000057
 10C   1s        -0.030028 -0.035491 -0.028522  0.041927  0.021145 -0.032593
 10C   2s         0.000231 -0.000002  0.000122  0.000243  0.000210 -0.000440
 10C   3s        -0.001456 -0.001101 -0.002998 -0.000059 -0.000721  0.003375
 10C   1pz        0.000000  0.000000 -0.000000  0.000000  0.000000  0.000000
 10C   1px       -0.000039 -0.000002  0.000010  0.000040  0.000050 -0.000077
 10C   1py       -0.000031 -0.000043  0.000001  0.000021  0.000019 -0.000033
 10C   2pz       -0.000000 -0.000000 -0.000000  0.000000 -0.000000 -0.000000
 10C   2px        0.001344  0.000639 -0.000385  0.000430 -0.000260 -0.000079
 10C   2py        0.000370  0.000327  0.002108 -0.000726  0.000353 -0.001204
 10C   1dz2      -0.000041 -0.000097 -0.000055  0.000179  0.000113 -0.000200
 10C   1dxz       0.000000  0.000000  0.000000 -0.000000 -0.000000  0.000000
 10C   1dyz       0.000000  0.000000 -0.000000  0.000000 -0.000000  0.000000
 10C   1dx2y2    -0.000012 -0.000006  0.000018 -0.000045  0.000004  0.000028
 10C   1dxy       0.000064  0.000089  0.000058 -0.000071 -0.000046  0.000050
 11C   1s        -0.001339 -0.001708 -0.002087  0.003168  0.001302 -0.002565
 11C   2s         0.000254  0.000114 -0.000198  0.000068 -0.000011  0.000085
 11C   3s        -0.000857 -0.000224  0.002584 -0.000600  0.000381 -0.001685
 11C   1pz       -0.000000 -0.000000 -0.000000  0.000000 -0.000000  0.000000
 11C   1px       -0.000054 -0.000054 -0.000034 -0.000007 -0.000017  0.000040
 11C   1py        0.000016  0.000020  0.000017 -0.000001  0.000025 -0.000011
 11C   2pz        0.000000  0.000000  0.000000 -0.000000 -0.000000  0.000000
 11C   2px        0.000198  0.000006 -0.001098  0.000199 -0.000086  0.000855
 11C   2py       -0.000345 -0.000158 -0.000423  0.000013  0.000099  0.000219
 11C   1dz2       0.000047  0.000027 -0.000033 -0.000023 -0.000011  0.000063
 11C   1dxz      -0.000000 -0.000000 -0.000000  0.000000  0.000000 -0.000000
 11C   1dyz       0.000000  0.000000 -0.000000  0.000000 -0.000000  0.000000
 11C   1dx2y2    -0.000012 -0.000006 -0.000031  0.000016  0.000001  0.000010
 11C   1dxy      -0.000008 -0.000012 -0.000023 -0.000006 -0.000005  0.000028
 12C   1s        -0.001339 -0.001708  0.002087 -0.003168  0.001302  0.002565
 12C   2s         0.000254  0.000114  0.000198 -0.000068 -0.000011 -0.000085
 12C   3s        -0.000857 -0.000224 -0.002584  0.000600  0.000381  0.001685
 12C   1pz        0.000000  0.000000 -0.000000  0.000000 -0.000000  0.000000
 12C   1px       -0.000054 -0.000054  0.000034  0.000007 -0.000017 -0.000040
 12C   1py       -0.000016 -0.000020  0.000017 -0.000001 -0.000025 -0.000011
 12C   2pz       -0.000000 -0.000000  0.000000 -0.000000  0.000000 -0.000000
 12C   2px        0.000198  0.000006  0.001098 -0.000199 -0.000086 -0.000855
 12C   2py        0.000345  0.000158 -0.000423  0.000013 -0.000099  0.000219
 12C   1dz2       0.000047  0.000027  0.000033  0.000023 -0.000011 -0.000063
 12C   1dxz       0.000000  0.000000 -0.000000  0.000000 -0.000000  0.000000
 12C   1dyz       0.000000  0.000000  0.000000  0.000000  0.000000 -0.000000
 12C   1dx2y2    -0.000012 -0.000006  0.000031 -0.000016  0.000001 -0.000010
 12C   1dxy       0.000008  0.000012 -0.000023 -0.000006  0.000005  0.000028
 13C   1s        -0.030029 -0.035491  0.028522 -0.041927  0.021145  0.032592
 13C   2s         0.000231 -0.000002 -0.000122 -0.000243  0.000210  0.000440
 13C   3s        -0.001456 -0.001101  0.002998  0.000059 -0.000721 -0.003375
 13C   1pz       -0.000000  0.000000 -0.000000  0.000000 -0.000000  0.000000
 13C   1px       -0.000039 -0.000002 -0.000010 -0.000040  0.000050  0.000077
 13C   1py        0.000031  0.000043  0.000001  0.000021 -0.000019 -0.000033
 13C   2pz        0.000000  0.000000 -0.000000  0.000000 -0.000000 -0.000000
 13C   2px        0.001344  0.000639  0.000385 -0.000430 -0.000260  0.000079
 13C   2py       -0.000370 -0.000327  0.002108 -0.000726 -0.000353 -0.001204
 13C   1dz2      -0.000041 -0.000097  0.000055 -0.000179  0.000113  0.000200
 13C   1dxz      -0.000000 -0.000000  0.000000 -0.000000 -0.000000  0.000000
 13C   1dyz       0.000000  0.000000  0.000000 -0.000000 -0.000000 -0.000000
 13C   1dx2y2    -0.000012 -0.000006 -0.000018  0.000045  0.000004 -0.000028
 13C   1dxy      -0.000064 -0.000089  0.000058 -0.000071  0.000046  0.000050
 14H   1s         0.000109 -0.000058  0.000031  0.000000 -0.000032 -0.000019
 14H   2s        -0.000093  0.000030  0.000216  0.000031  0.000006 -0.000165
 14H   1pz       -0.000000  0.000000 -0.000000 -0.000000 -0.000000 -0.000000
 14H   1px        0.000003  0.000001 -0.000024  0.000000 -0.000005  0.000026
 14H   1py        0.000004  0.000004  0.000005 -0.000004 -0.000005 -0.000004
 15H   1s         0.000063  0.000019 -0.000160 -0.000144  0.000037 -0.000060
 15H   2s        -0.000173  0.000074 -0.000444 -0.000220 -0.000016  0.000221
 15H   1pz        0.000000 -0.000000  0.000000  0.000000 -0.000000  0.000000
 15H   1px        0.000054 -0.000026  0.000017  0.000002  0.000005 -0.000002
 15H   1py        0.000030 -0.000032 -0.000021  0.000026 -0.000039  0.000060
 16H   1s         0.000063  0.000019  0.000160  0.000144  0.000037  0.000060
 16H   2s        -0.000173  0.000074  0.000444  0.000220 -0.000016 -0.000221
 16H   1pz       -0.000000  0.000000 -0.000000 -0.000000  0.000000  0.000000
 16H   1px        0.000054 -0.000026 -0.000017 -0.000002  0.000005  0.000002
 16H   1py       -0.000030  0.000032 -0.000021  0.000026  0.000039  0.000060
 17H   1s         0.000109 -0.000058 -0.000031 -0.000000 -0.000032  0.000019
 17H   2s        -0.000093  0.000030 -0.000216 -0.000031  0.000006  0.000165
 17H   1pz        0.000000 -0.000000 -0.000000 -0.000000  0.000000 -0.000000
 17H   1px        0.000003  0.000001  0.000024 -0.000000 -0.000005 -0.000026
 17H   1py       -0.000004 -0.000004  0.000005 -0.000004  0.000005 -0.000004
 18H   1s         0.000169  0.000000 -0.000029 -0.000000  0.000490 -0.000523
 18H   2s        -0.000435 -0.000000 -0.000500  0.000000 -0.000514 -0.000107
 18H   1pz        0.000000  0.000000  0.000000 -0.000000  0.000000 -0.000000
 18H   1px       -0.000000  0.000076  0.000000 -0.000007 -0.000000  0.000000
 18H   1py       -0.000056 -0.000000 -0.000126  0.000000 -0.000344  0.000280
 19H   1s         0.000169  0.000000  0.000029 -0.000000  0.000490  0.000523
 19H   2s        -0.000435 -0.000000  0.000500  0.000000 -0.000514  0.000107
 19H   1pz       -0.000000 -0.000000  0.000000 -0.000000 -0.000000 -0.000000
 19H   1px       -0.000000  0.000076  0.000000  0.000007 -0.000000  0.000000
 19H   1py        0.000056  0.000000 -0.000126  0.000000  0.000344  0.000280
 20H   1s         0.000063 -0.000019 -0.000160  0.000144  0.000037 -0.000060
 20H   2s        -0.000173 -0.000074 -0.000444  0.000220 -0.000016  0.000221
 20H   1pz        0.000000  0.000000 -0.000000 -0.000000  0.000000  0.000000
 20H   1px       -0.000054 -0.000026 -0.000017  0.000002 -0.000005  0.000002
 20H   1py        0.000030  0.000032 -0.000021 -0.000026 -0.000039  0.000060
 21H   1s         0.000109  0.000058  0.000031 -0.000000 -0.000032 -0.000019
 21H   2s        -0.000093 -0.000030  0.000216 -0.000031  0.000006 -0.000165
 21H   1pz       -0.000000 -0.000000 -0.000000  0.000000 -0.000000 -0.000000
 21H   1px       -0.000003  0.000001  0.000024  0.000000  0.000005 -0.000026
 21H   1py        0.000004 -0.000004  0.000005  0.000004 -0.000005 -0.000004
 22H   1s         0.000109  0.000058 -0.000031  0.000000 -0.000032  0.000019
 22H   2s        -0.000093 -0.000030 -0.000216  0.000031  0.000006  0.000165
 22H   1pz        0.000000  0.000000 -0.000000  0.000000  0.000000 -0.000000
 22H   1px       -0.000003  0.000001 -0.000024 -0.000000  0.000005  0.000026
 22H   1py       -0.000004  0.000004  0.000005  0.000004  0.000005 -0.000004
 23H   1s         0.000063 -0.000019  0.000160 -0.000144  0.000037  0.000060
 23H   2s        -0.000173 -0.000074  0.000444 -0.000220 -0.000016 -0.000221
 23H   1pz       -0.000000 -0.000000 -0.000000 -0.000000 -0.000000  0.000000
 23H   1px       -0.000054 -0.000026  0.000017 -0.000002 -0.000005 -0.000002
 23H   1py       -0.000030 -0.000032 -0.000021 -0.000026  0.000039  0.000060
                      6         7         8         9        10        11   
                 -11.24916 -11.24916 -11.24911 -11.24911 -11.24704 -11.24704
                   2.00000   2.00000   2.00000   2.00000   2.00000   2.00000
                  --------  --------  --------  --------  --------  --------
  0C   1s         0.149547  0.148952 -0.104109  0.103881  0.490832  0.464521
  0C   2s         0.000873  0.000800 -0.000586  0.000527  0.004111  0.003862
  0C   3s        -0.000240  0.000253 -0.000836  0.001648 -0.004870 -0.004551
  0C   1pz        0.000000  0.000000 -0.000000 -0.000000  0.000000  0.000000
  0C   1px       -0.000057 -0.000045  0.000034 -0.000025  0.000023  0.000017
  0C   1py        0.000009  0.000014  0.000019 -0.000017  0.000112  0.000107
  0C   2pz       -0.000000 -0.000000  0.000000 -0.000000  0.000000  0.000000
  0C   2px        0.000436  0.000552 -0.001015  0.001514 -0.000767 -0.000698
  0C   2py       -0.000195 -0.000027  0.000007  0.000186 -0.000441 -0.000404
  0C   1dz2       0.000089  0.000079 -0.000091  0.000076 -0.000151 -0.000148
  0C   1dxz       0.000000  0.000000 -0.000000  0.000000 -0.000000 -0.000000
  0C   1dyz      -0.000000 -0.000000  0.000000 -0.000000  0.000000  0.000000
  0C   1dx2y2    -0.000012 -0.000010  0.000014 -0.000017  0.000134  0.000129
  0C   1dxy      -0.000064 -0.000057 -0.000008  0.000015 -0.000018 -0.000016
  1C   1s         0.477538  0.475644 -0.488638  0.487394 -0.153423 -0.145188
  1C   2s         0.004046  0.003961 -0.004442  0.004490 -0.001673 -0.001630
  1C   3s        -0.005296 -0.005184  0.007363 -0.008810  0.002978  0.002944
  1C   1pz       -0.000000  0.000000  0.000000 -0.000000 -0.000000 -0.000000
  1C   1px       -0.000010 -0.000028  0.000005 -0.000029  0.000069  0.000062
  1C   1py        0.000068  0.000054 -0.000026  0.000021  0.000032  0.000033
  1C   2pz        0.000000  0.000000 -0.000000  0.000000  0.000000  0.000000
  1C   2px       -0.000699 -0.000137  0.000720 -0.000341 -0.000868 -0.000741
  1C   2py        0.000859  0.000922 -0.001400  0.002067 -0.000701 -0.000726
  1C   1dz2      -0.000224 -0.000240  0.000197 -0.000201  0.000213  0.000194
  1C   1dxz      -0.000000 -0.000000  0.000000 -0.000000  0.000000  0.000000
  1C   1dyz       0.000000  0.000000 -0.000000  0.000000 -0.000000 -0.000000
  1C   1dx2y2    -0.000043 -0.000037  0.000053 -0.000041  0.000006  0.000003
  1C   1dxy       0.000063  0.000044 -0.000030  0.000017 -0.000024 -0.000027
  2C   1s        -0.034696 -0.035404  0.041878 -0.042604  0.009222  0.008852
  2C   2s        -0.000514 -0.000600  0.000466 -0.000299  0.000037 -0.000039
  2C   3s         0.001274  0.001016 -0.001891 -0.000800 -0.000366 -0.000014
  2C   1pz       -0.000000  0.000000  0.000000 -0.000000  0.000000 -0.000000
  2C   1px        0.000086  0.000049 -0.000069  0.000033  0.000019  0.000012
  2C   1py       -0.000000 -0.000023  0.000004 -0.000024  0.000020  0.000024
  2C   2pz        0.000000 -0.000000 -0.000000  0.000000 -0.000000  0.000000
  2C   2px       -0.001502 -0.001344  0.002379 -0.004969 -0.000189  0.000082
  2C   2py       -0.000005 -0.000104 -0.001045  0.000995 -0.000021  0.000080
  2C   1dz2       0.000113  0.000123 -0.000227  0.000303 -0.000087 -0.000097
  2C   1dxz       0.000000  0.000000 -0.000000 -0.000000 -0.000000 -0.000000
  2C   1dyz      -0.000000 -0.000000  0.000000 -0.000000  0.000000  0.000000
  2C   1dx2y2    -0.000035 -0.000047 -0.000034  0.000031  0.000044  0.000049
  2C   1dxy       0.000021  0.000024 -0.000061  0.000015 -0.000047 -0.000029
  3C   1s        -0.034695 -0.035403 -0.041878  0.042605  0.009222  0.008852
  3C   2s        -0.000514 -0.000600 -0.000466  0.000299  0.000037 -0.000039
  3C   3s         0.001274  0.001016  0.001891  0.000800 -0.000366 -0.000014
  3C   1pz       -0.000000 -0.000000  0.000000  0.000000 -0.000000 -0.000000
  3C   1px        0.000086  0.000049  0.000069 -0.000033  0.000019  0.000012
  3C   1py        0.000000  0.000023  0.000004 -0.000024 -0.000020 -0.000024
  3C   2pz        0.000000  0.000000  0.000000 -0.000000  0.000000 -0.000000
  3C   2px       -0.001502 -0.001344 -0.002379  0.004969 -0.000189  0.000082
  3C   2py        0.000005  0.000104 -0.001045  0.000995  0.000021 -0.000080
  3C   1dz2       0.000113  0.000123  0.000227 -0.000303 -0.000087 -0.000097
  3C   1dxz      -0.000000 -0.000000  0.000000 -0.000000 -0.000000  0.000000
  3C   1dyz      -0.000000 -0.000000  0.000000 -0.000000  0.000000  0.000000
  3C   1dx2y2    -0.000035 -0.000047  0.000034 -0.000031  0.000044  0.000049
  3C   1dxy      -0.000021 -0.000024 -0.000061  0.000015  0.000047  0.000029
  4C   1s         0.477529  0.475634  0.488648 -0.487403 -0.153424 -0.145189
  4C   2s         0.004046  0.003961  0.004442 -0.004490 -0.001673 -0.001630
  4C   3s        -0.005296 -0.005184 -0.007364  0.008810  0.002978  0.002944
  4C   1pz        0.000000  0.000000  0.000000 -0.000000 -0.000000 -0.000000
  4C   1px       -0.000010 -0.000028 -0.000005  0.000029  0.000069  0.000062
  4C   1py       -0.000068 -0.000054 -0.000026  0.000021 -0.000032 -0.000033
  4C   2pz       -0.000000 -0.000000 -0.000000  0.000000  0.000000  0.000000
  4C   2px       -0.000699 -0.000137 -0.000720  0.000341 -0.000868 -0.000741
  4C   2py       -0.000859 -0.000922 -0.001400  0.002067  0.000701  0.000726
  4C   1dz2      -0.000224 -0.000240 -0.000197  0.000201  0.000213  0.000194
  4C   1dxz      -0.000000 -0.000000 -0.000000  0.000000  0.000000  0.000000
  4C   1dyz      -0.000000 -0.000000 -0.000000  0.000000 -0.000000 -0.000000
  4C   1dx2y2    -0.000043 -0.000037 -0.000053  0.000041  0.000006  0.000003
  4C   1dxy      -0.000063 -0.000044 -0.000030  0.000017  0.000024  0.000027
  5C   1s         0.149546  0.148950  0.104113 -0.103884  0.490834  0.464523
[...]
 --------------------------------------------------------------- 

   *********************
    MULT 1, ROOT 2 
   *********************

  Class V0_ijab :	 dE = -1.561387703468 
  Class Vm1_iab :	 dE = -0.164428709498 
  Class Vm2_ab  :	 dE = -0.011858708636 
  Class V1_ija  :	 dE = -0.108724067556 
  Class V2_ij   :	 dE = -0.011985371386 
  Class V0_ia   :	 dE = -0.072632789846 
  Class Vm1_a   :	 dE = -0.007649378037 
  Class V1_i    :	 dE = -0.008513169372 

 --------------------------------------------------------------- 
 	 Total Energy Correction : dE = -1.94717989779940
 --------------------------------------------------------------- 
 	 Reference  Energy       : E0 = -535.75095078905110
 --------------------------------------------------------------- 
 	 Total Energy (E0+dE)    : E  = -537.69813068685050
 --------------------------------------------------------------- 

-----------------------
 NEVPT2 TOTAL ENERGIES
-----------------------
# This can be used as input for the MRCI SOC block to replace
# the diagonal energies within the QDPT treatment. 
# Note that multiplicty blocks must be ordered in decending order e.g. mult 5,3,1! 

STATE   ROOT MULT  Energy/a.u.   MRCI SOC BLOCK INPUT (cm**-1)
   0:    0    1  -537.858065    EDIAG[0] -118046200.641554
   1:    1    1  -537.739085    EDIAG[1] -118020087.363817
   2:    2    1  -537.698131    EDIAG[2] -118011099.015104

-----------------------------
 NEVPT2 TRANSITION ENERGIES
------------------------------

LOWEST ROOT (ROOT 0, MULT 1) =   -537.858065465 Eh -14635.862 eV

STATE ROOT MULT  DE/a.u.     DE/eV    DE/cm**-1
   1:   1    1   0.118981     3.238  26113.3
   2:   2    1   0.159935     4.352  35101.6

--------------------------------------------
 NEVPT2 CORRECTION TO THE TRANSITION ENERGY
--------------------------------------------
STATE  ROOT MULT DE/a.u. DE/eV 	DE/cm**-1
   1:    1    1  -0.053278     -1.450 -11693.2

STATE  ROOT MULT DE/a.u. DE/eV 	DE/cm**-1
   2:    2    1  -0.118735     -3.231 -26059.3


--------------
TIMINGS NEVPT2
--------------

Sum of individual times        ...       90.4 sec (100.0%)

   Integraltransformation      ...       74.3 sec ( 82.2%)
   Building Fock and alike     ...        6.9 sec (  7.6%)
   Building D2,D1              ...        0.0 sec (  0.0%)
   Building D3                 ...        0.0 sec (  0.0%)
   Building D4                 ...        0.0 sec (  0.0%)
   All densities               ...        0.1 sec (  0.1%)
   Hole Densities              ...        0.0 sec (  0.0%)
   Re-Canonicalization         ...        9.1 sec ( 10.1%)
   Classes Vijab               ...        0.0 sec (  0.0%)
   Class Viab                  ...        0.0 sec (  0.0%)
   Class Vab                   ...        0.0 sec (  0.0%)
   Class Vija                  ...        0.0 sec (  0.0%)
   Class Vij                   ...        0.0 sec (  0.0%)
   Class Via                   ...        0.0 sec (  0.0%)
   Class Va                    ...        0.0 sec (  0.0%)
   Class Vi                    ...        0.0 sec (  0.0%)
   All Classes                 ...        0.0 sec (  0.1%)

-------------------------------------------------------------
 Forming the transition density       ... done in 0.0 sec
-------------------------------------------------------------

--------------
CASSCF TIMINGS
--------------

Total time                       ...      215.2 sec
Sum of individual times          ...      215.1 sec ( 99.9%)

Calculation of AO operators
   F(Core) operator              ...       17.8 sec (  8.3%)
   G(Act) operator               ...       13.7 sec (  6.4%)
Calculation of MO transformed quantities
   J(MO) operators               ...       92.9 sec ( 43.1%)
   AO->MO one electron integrals ...        0.0 sec (  0.0%)
Configuration interaction steps
   CI-setup phase                ...        0.0 sec (  0.0%)
   CI-solution phase             ...        0.1 sec (  0.1%)
   Generation of densities       ...        0.0 sec (  0.0%)
Orbital improvement steps
   Orbital gradient              ...        0.0 sec (  0.0%)
   O(1) converger                ...        0.1 sec (  0.1%)
CPCM steps
   Total CPCM time               ...        0.0 sec (  0.0%)
PT2 
   NEVPT2 time                   ...       90.4 sec ( 42.0%)
Properties                       ...        0.0 sec (  0.0%)
   SOC integral calculation      ...        0.0 sec (  0.0%)
   SSC RMEs (incl. integrals)    ...        0.0 sec (  0.0%)
   SOC RMEs                      ...        0.0 sec (  0.0%)

Maximum memory used throughout the entire CASSCF-calculation: 149.7 MB


           ************************************************************
           *        Program running with 8 parallel MPI-processes     *
           *              working on a common directory               *
           ************************************************************

------------------------------------------------------------------------------
                         ORCA PROPERTY INTEGRAL CALCULATIONS
------------------------------------------------------------------------------

GBWName                                   ... orca.gbw
Number of atoms                           ...     24
Number of basis functions                 ...    344
Max core memory                           ...   1024 MB

Dipole integrals                          ... YES
Quadrupole integrals                      ...  NO
Linear momentum integrals                 ...  NO
Angular momentum integrals                ... YES
Higher moments length integrals           ...  NO
Higher moments velocity integrals         ...  NO
Kinetic energy integrals                  ...  NO
GIAO right hand sides                     ...  NO
GIAO dipole derivative integrals          ...  NO
SOC integrals                             ...  NO
EPR diamagnetic integrals (GIAO)          ...  NO
EPR gauge integrals                       ...  NO
Field gradient integrals                  ...  NO (   0 nuclei)
Spin-dipole/Fermi contact integrals       ...  NO (   0 nuclei)
Contact density integrals                 ...  NO (   0 nuclei)
Nucleus-orbit integrals                   ...  NO (   0 nuclei)
Geometric perturbations                   ...  NO (  24 nuclei)

Choice of electric origin   ... Center of mass
Position of electric origin ... ( -0.0000, -0.0000, -0.0000) 
Choice of magnetic origin   ... GIAO
Position of magnetic origin ... (  0.0000,  0.0000,  0.0000) 

Calculating integrals                     ... Electric Dipole (Length)     done (  0.0 sec)
Calculating integrals                     ... Angular Momentum  (ElOri)    done (  0.0 sec)

Property integrals calculated in   0.0 sec

Maximum memory used throughout the entire PROPINT-calculation: 20.0 MB


           ************************************************************
           *        Program running with 8 parallel MPI-processes     *
           *              working on a common directory               *
           ************************************************************
-------------------------------------------------------------------------------
                              ORCA-CASSCF
-------------------------------------------------------------------------------

Setting up the integral package     ... done

PROPERTIES-SETTINGS:
  QDPT diagonal energies            ... NEVPT2 energies 


==========================================
CASSCF UV, CD spectra and dipole moments
==========================================

----------------------------------------------------------------------------------------------------
                     ABSORPTION SPECTRUM VIA TRANSITION ELECTRIC DIPOLE MOMENTS    
----------------------------------------------------------------------------------------------------
     Transition      Energy     Energy  Wavelength fosc(D2)      D2        DX        DY        DZ   
                      (eV)      (cm-1)    (nm)                 (au**2)    (au)      (au)      (au)  
----------------------------------------------------------------------------------------------------
  0-1A  ->  1-1A    4.687400   37806.4   264.5   0.357670067   3.11453  -0.00000   1.76480   0.00000
  0-1A  ->  2-1A    7.582984   61160.9   163.5   0.000000000   0.00000   0.00000   0.00000  -0.00000

------------------------------------------------------------------------------------------
                     CD SPECTRUM VIA TRANSITION ELECTRIC DIPOLE MOMENTS    
------------------------------------------------------------------------------------------
     Transition      Energy     Energy  Wavelength    R        MX        MY        MZ   
                      (eV)      (cm-1)    (nm)   (1e40*cgs)   (au)      (au)      (au)  
------------------------------------------------------------------------------------------
  0-1A  ->  1-1A    4.687400   37806.4   264.5    0.00002   0.00000  -0.00000  -0.00000
  0-1A  ->  2-1A    7.582984   61160.9   163.5   -0.00000   0.00000  -0.00000  -0.00000


=====================================================================
CASSCF (NEVPT2 diagonal energies) UV, CD spectra and dipole moments
=====================================================================

----------------------------------------------------------------------------------------------------
                     ABSORPTION SPECTRUM VIA TRANSITION ELECTRIC DIPOLE MOMENTS    
----------------------------------------------------------------------------------------------------
     Transition      Energy     Energy  Wavelength fosc(D2)      D2        DX        DY        DZ   
                      (eV)      (cm-1)    (nm)                 (au**2)    (au)      (au)      (au)  
----------------------------------------------------------------------------------------------------
  0-1A  ->  1-1A    3.237633   26113.3   382.9   0.247046242   3.11453  -0.00000   1.76480   0.00000
  0-1A  ->  2-1A    4.352047   35101.6   284.9   0.000000000   0.00000   0.00000   0.00000  -0.00000

------------------------------------------------------------------------------------------
                     CD SPECTRUM VIA TRANSITION ELECTRIC DIPOLE MOMENTS    
------------------------------------------------------------------------------------------
     Transition      Energy     Energy  Wavelength    R        MX        MY        MZ   
                      (eV)      (cm-1)    (nm)   (1e40*cgs)   (au)      (au)      (au)  
------------------------------------------------------------------------------------------
  0-1A  ->  1-1A    3.237633   26113.3   382.9    0.00002   0.00000  -0.00000  -0.00000
  0-1A  ->  2-1A    4.352047   35101.6   284.9   -0.00000   0.00000  -0.00000  -0.00000

--------------
CASSCF TIMINGS
--------------

Total time                       ...        1.4 sec
Sum of individual times          ...        1.4 sec ( 98.0%)

Calculation of AO operators
Calculation of MO transformed quantities
Configuration interaction steps
   CI-setup phase                ...        1.4 sec ( 98.0%)
Orbital improvement steps

Maximum memory used throughout the entire CASSCF-calculation: 43.9 MB

-------------------------   --------------------
FINAL SINGLE POINT ENERGY      -537.765093589509
-------------------------   --------------------



           ************************************************************
           *        Program running with 8 parallel MPI-processes     *
           *              working on a common directory               *
           ************************************************************

------------------------------------------------------------------------------
                              ORCA PROPERTY CALCULATIONS
------------------------------------------------------------------------------

GBWName                                 ... orca.gbw
Number of atoms                         ...     24
Number of basis functions               ...    344
Max core memory                         ...   1024 MB

Electric properties:
Dipole moment                           ... YES
Quadrupole moment                       ...  NO
Static polarizability (Dipole/Dipole)   ...  NO
Static polarizability (Dipole/Quad.)    ...  NO
Static polarizability (Quad./Quad.)     ...  NO
Static polarizability (Velocity)        ...  NO

Atomic electric properties:
Dipole moment                           ...  NO
Quadrupole moment                       ...  NO
Static polarizability                   ...  NO

Choice of electric origin               ... Center of mass
Position of electric origin             ...    -0.000000    -0.000000    -0.000000

General magnetic properties:
Magnetizability                         ...  NO

EPR properties:
g-Tensor (aka g-matrix)                 ...  NO
Zero-Field splitting spin-orbit         ...  NO
Zero-field splitting spin-spin          ...  NO
Hyperfine couplings                     ...  NO (   0 nuclei)
Quadrupole couplings                    ...  NO (   0 nuclei)
Contact density                         ...  NO (   0 nuclei)

NMR properties:
Chemical shifts                         ...  NO (   0 nuclei)
Spin-rotation constants                 ...  NO (   0 nuclei)
Spin-spin couplings                     ...  NO (   0 nuclei,    0 pairs)

Choice of magnetic origin               ... GIAO
Position of magnetic origin             ...     0.000000     0.000000     0.000000

Properties with geometric perturbations:
SCF Hessian                             ...  NO
IR spectrum                             ...  NO
VCD spectrum                            ...  NO
X-ray spectroscopy properties:
SCF XES/XAS/RIXS spectra                ...  NO


-------------
DIPOLE MOMENT
-------------

Method             : CASSCF
Type of density    : Electron Density
Level              : Unrelaxed density
State              :  -1
Multiplicity       :  -1
Irrep              :   0
Energy             :  -535.8793108879888223 Eh
Relativity type    : 
Basis              : AO
                                X                 Y                 Z
Electronic contribution:     -0.000000056      -0.000000021      -0.000000527
Nuclear contribution   :      0.000000070       0.000000041       0.000000654
                        -----------------------------------------
Total Dipole Moment    :      0.000000014       0.000000020       0.000000127
                        -----------------------------------------
Magnitude (a.u.)       :      0.000000129
Magnitude (Debye)      :      0.000000328



--------------------
Rotational spectrum 
--------------------
 
Rotational constants in cm-1:             0.070601             0.014886             0.012294 
Rotational constants in MHz :          2116.569767           446.264446           368.556744 

Dipole components along the rotational axes: 
x,y,z [a.u.] :    -0.000000     0.000000     0.000000 
x,y,z [Debye]:    -0.000000     0.000000     0.000000 

 

Dipole moment calculation done in   0.0 sec 

Maximum memory used throughout the entire PROP-calculation: 17.2 MB

--------------------------------
SUGGESTED CITATIONS FOR THIS RUN
--------------------------------

Below you find a list of papers that are relevant to this ORCA run
We neither can nor want to force you to cite these papers, but we appreciate if you do
You receive ORCA, which is the product of decades of hard work by many enthusiastic individuals, for free
The only thing we kindly ask in return is that you cite our papers,
We deeply appreciate it, if you show your appreciation for ORCA by not just citing the generic ORCA reference.

Please note that relegating all ORCA citations to the supporting information does *not* help us.
SI sections are not indexed - citations you put there will not count into any citation statistics
But we need these citations in order to attract the funding resources that allow us to do what we are doing

Therefore, if you are a happy ORCA user, please consider citing a few of the papers listed below in the main body of your paper

In addition to the list printed below, the program has created the file orca.bibtex that contains the list in bibtex format
You can import this file easily into all common literature databanks and citation aid programs


List of essential papers. We consider these as the minimum necessary citations

  1. Neese,F.
     Software update: the ORCA program system, version 5.0
     WIRES Comput. Molec. Sci., 2022 12(1)e1606
     doi.org/10.1002/wcms.1606

List of papers to cite with high priority. The work reported in these papers was absolutely
necessary for this run to complete.
Our perspective: the developers of density functionals and basis sets usually get cited in chemistry papers
Good! But without the algorithms to do something with them, the functionals or basis sets would not do anything.
Hence, in our opinion, the algorithm design and method developments papers are equally worthy of getting cited

  1. Kollmar,C.; Sivalingam,K.; Helmich-Paris,B.; Angeli,C.; Neese,F.
     A perturbation-based super-CI approach for the orbital optimization of a CASSCF wave function
     J. Comput. Chem., 2019 40 1463-1470
     doi.org/10.1002/jcc.25801
  2. Kollmar,C.; Sivalingam,K.; Neese,F.
     An efficient implementation of the NEVPT2 and CASPT2 methods avoiding higher-order density matrices
     J. Chem. Phys., 2021 155 234104
     doi.org/10.1063/5.0072129
  3. Guo,Y.; Sivalingam,K.; Neese,F.
     Approximations of density matrices in N-electron valence state second-order perturbation theory (NEVPT2). I. Revisiting the NEVPT2 construction
     J. Chem. Phys., 2021 154 214111
  4. Neese,F.
     The SHARK Integral Generation and Digestion System
     J. Comp. Chem., 2022  1-16
     doi.org/10.1002/jcc.26942
  5. Ugandi,M.; Roemelt,M.
     A recursive formulation of one-electron coupling coefficients for spin-adapted configuration interaction calculations featuring many unpaired electrons
     Int. J. Quantum Chem., 2023 123 e27045
     doi.org/10.1002/qua.27045

List of suggested additional citations. These are papers that are important in the 'surrounding' of 
of this run, or papers that preceded the highly important papers. If you like your results we are grateful for a citation.

  1. Neese,F.
     The ORCA program system
     WIRES Comput. Molec. Sci., 2012 2(1)73-78
     doi.org/10.1002/wcms.81
  2. Schapiro,I.; Sivalingam,K.; Neese,F.
     Assessment of n-Electron Valence State Perturbation Theory for Vertical Excitation Energies
     J. Theo. Comp. Chem., 2013 9 3567-3580
     doi.org/10.1021/ct400136y
  3. Neese,F.
     Software update: the ORCA program system, version 4.0
     WIRES Comput. Molec. Sci., 2018 8(1)1-6
     doi.org/10.1002/wcms.1327
  4. Neese,F.; Wennmohs,F.; Becker,U.; Riplinger,C.
     The ORCA quantum chemistry program package
     J. Chem. Phys., 2020 152 Art. No. L224108
     doi.org/10.1063/5.0004608
  5. Guo,Y.; Sivalingam,K.; Kollmar,C.; Neese,F.
     Approximations of density matrices in N-electron valence state second-order perturbation theory (NEVPT2). II. The full rank NEVPT2 (FR-NEVPT2) formulation
     J. Chem. Phys., 2021 154 214113

List of optional additional citations

  1. Neese,F.
     Approximate second-order SCF convergence for spin unrestricted wavefunctions
     Chem. Phys. Lett., 2000 325(1-3)93-98
     doi.org/10.1016/s0009-2614(00)00662-x

Timings for individual modules:

Sum of individual times          ...      221.854 sec (=   3.698 min)
Startup calculation              ...        2.098 sec (=   0.035 min)   0.9 %
SCF iterations                   ...        0.345 sec (=   0.006 min)   0.2 %
CASSCF iterations                ...      218.774 sec (=   3.646 min)  98.6 %
Property integrals               ...        0.359 sec (=   0.006 min)   0.2 %
Property calculations            ...        0.278 sec (=   0.005 min)   0.1 %
                             ****ORCA TERMINATED NORMALLY****
TOTAL RUN TIME: 0 days 0 hours 3 minutes 42 seconds 123 msec
