
                                 *****************
                                 * O   R   C   A *
                                 *****************

                                            #,                                       
                                            ###                                      
                                            ####                                     
                                            #####                                    
                                            ######                                   
                                           ########,                                 
                                     ,,################,,,,,                         
                               ,,#################################,,                 
                          ,,##########################################,,             
                       ,#########################################, ''#####,          
                    ,#############################################,,   '####,        
                  ,##################################################,,,,####,       
                ,###########''''           ''''###############################       
              ,#####''   ,,,,##########,,,,          '''####'''          '####       
            ,##' ,,,,###########################,,,                        '##       
           ' ,,###''''                  '''############,,,                           
         ,,##''                                '''############,,,,        ,,,,,,###''
      ,#''                                            '''#######################'''  
     '                                                          ''''####''''         
             ,#######,   #######,   ,#######,      ##                                
            ,#'     '#,  ##    ##  ,#'     '#,    #''#        ,####,    ,#,          
            ##       ##  ##   ,#'  ##            #'  '#       #'       ,# #          
            ##       ##  #######   ##           ,######,      #####,      #          
            '#,     ,#'  ##    ##  '#,     ,#' ,#      #,     #,   #      #          
             '#######'   ##     ##  '#######'  #'      '#     '####' #    #          



                #########################################################
                #                        -***-                          #
                #          Department of theory and spectroscopy        #
                #                                                       #
                #                      Frank Neese                      #
                #                                                       #
                #     Directorship, Architecture, Infrastructure        #
                #                    SHARK, DRIVERS                     #
                #        Core code/Algorithms in most modules           #
                #                                                       #
                #        Max Planck Institute fuer Kohlenforschung      #
                #                Kaiser Wilhelm Platz 1                 #
                #                 D-45470 Muelheim/Ruhr                 #
                #                      Germany                          #
                #                                                       #
                #                  All rights reserved                  #
                #                        -***-                          #
                #########################################################


                         Program Version 6.1.1  -  RELEASE   -
                                (GIT: $487d211cc3$)
                          ($2025-11-21 10:33:24 +0100$)


 With contributions from (in alphabetic order):
[Max-Planck-Institut fuer Kohlenforschung]                               
  Daniel Aravena         : Magnetic Suceptibility                        
  Michael Atanasov       : Ab Initio Ligand Field Theory (pilot matlab implementation)
  Alexander A. Auer      : GIAO ZORA, VPT2 properties, NMR spectrum      
  Ute Becker             : All parallelization in ORCA, NUMFREQ, NUMCALC 
  Giovanni Bistoni       : ED, misc. LED, open-shell LED, HFLD           
  Dmytro Bykov           : pre 5.0 version of the SCF Hessian            
  Marcos Casanova-Páez   : Triplet and SCS-CIS(D). UHF-(DLPNO)-IP/EA/STEOM-CCSD. UHF-CVS-IP/STEOM-CCSD   
  Vijay G. Chilkuri      : MRCI spin determinant printing, contributions to CSF-ICE 
  Pauline Colinet        : FMM embedding                                 
  Dipayan Datta          : RHF DLPNO-CCSD density                        
  Achintya Kumar Dutta   : EOM-CC, STEOM-CC                              
  Nicolas Foglia         : Exact transition moments, OPA infrastructure, MCD improvements    
  Dmitry Ganyushin       : Spin-Orbit,Spin-Spin,Magnetic field MRCI      
  Miquel Garcia-Rates    : C-PCM and meta-GGA Hessian, CCSD/C-PCM, Gaussian charge scheme 
  Tiago L. C. Gouveia    : GS-ROHF, GS-ROCIS                             
  Yang Guo               : DLPNO-NEVPT2, F12-NEVPT2, CIM, IAO-localization        
  Andreas Hansen         : Spin unrestricted coupled pair/coupled cluster methods 
  Ingolf Harden          : AUTO-CI MPn and infrastructure                
  Benjamin Helmich-Paris : MC-RPA, TRAH-(SCF,CASSCF), AVAS, COSX integrals, SCF dyn. polar., MC-PDFT, srDFT 
  Lee Huntington         : MR-EOM, pCC                                   
  Robert Izsak           : Overlap fitted RIJCOSX, COSX-SCS-MP3, EOM     
  Riya Kayal             : Wick's Theorem for AUTO-CI, AUTO-CI UHF-CCSDT 
  Emily Kempfer          : AUTO-CI RHF CISDT and CCSDT, approximate NEVPT4
  Christian Kollmar      : KDIIS, OOCD, Brueckner-CCSD(T), CCSD density, CASPT2, CASPT2-K, improved NEVPT2 
  Axel Koslowski         : Symmetry handling                             
  Simone Kossmann        : meta-GGA functionals, TD-DFT gradient, OOMP2, (MP2 Hessian; deprecated post 5.0) 
  Lucas Lang             : DCDCAS, Hyperfine gauge corrections, ICE-SOC+SSC
  Marvin Lechner         : AUTO-CI (C++ implementation), FIC-MRCC        
  Spencer Leger          : CASSCF response                               
  Dagmar Lenk            : GEPOL surface, SMD, ORCA-2-JSON               
  Dimitrios Liakos       : Extrapolation schemes; Compound Job, Property file
  Dimitrios Manganas     : Further ROCIS development; embedding schemes. LFT, Crystal Embedding 
  Dimitrios Pantazis     : SARC Basis sets                               
  Anastasios Papadopoulos: AUTO-CI, single reference methods and gradients 
  Taras Petrenko         : pre 6.0 DFT Hessian and TD-DFT gradient,  ECA, NRVS 
  Petra Pikulova         : Analytic Raman intensities                    
  Peter Pinski           : DLPNO-MP2, DLPNO-MP2 Gradient                 
  Shashank Vittal Rao    : ES-AILFT, MagRelax                            
  Christoph Reimann      : Effective Core Potentials                     
  Marius Retegan         : Local ZFS, SOC                                
  Christoph Riplinger    : Optimizer, TS searches, QM/MM, DLPNO-CCSD(T), (RO)-DLPNO pert. Triples 
  Michael Roemelt        : Original ROCIS implementation, recursive CI coupling coefficients
  Masaaki Saitow         : Open-shell DLPNO-CCSD energy and density      
  Barbara Sandhoefer     : DKH picture change effects                    
  Yorick L. A. Schmerwitz: GMF and freeze-and-release deltaSCF, NEB S-IDPP initial path                    
  Kantharuban Sivalingam : CASSCF convergence/infrastructure, NEVPT2, NEVPT3, NEVPT4(SD), FIC-MRCI and CEPA variants
  Bernardo de Souza      : ESD, SOC TD-DFT                               
  Georgi L. Stoychev     : AutoAux, RI-MP2 NMR, DLPNO-MP2 response, X2C  
  Van Anh Tran           : RI-MP2 g-tensors                              
  Willem Van den Heuvel  : Paramagnetic NMR                              
  Zikuan Wang            : NOTCH, Electric field optimization            
  Frank Wennmohs         : Technical directorship and infrastructure     
  Hang Xu                : AUTO-CI-Response properties                   
                                                                         
[FACCTs GmbH]                                                            
  Markus Bursch, Nicolas Foglia, Miquel Garcia-Rates, Ingolf Harden, Hagen Neugebauer, Anastasios Papadopoulos, 
  Christoph Riplinger, Bernardo de Souza, Georgi L. Stoychev                                                    
                                                                 
  APM, various basis sets, CI-OPT, improved COSX, DLPNO-Multilevel,           
  DOCKER, DRACO, updates on ESD, Fragmentator, GOAT, IRC, LR-CPCM, L-BFGS, MBIS, meta-GGA TD-DFT gradient, ML-optimized integration grids, 
  MM, NACMEs, nearIR, NEB, NEB-TS, NL-DFT gradient (VV10), 2- and 3-layer-ONIOM, interface openCOSMO-RS, QMMM,   
  Crystal-QMMM, RESP, rigid body optimization, SF, symmetry and pop. for TD-DFT, various functionals, SOLVATOR                                   
                                                                         
[Other institutions]                                                     
  V. Asgeirsson          : NEB                                           
  Christoph Bannwarth    : sTDA-DFT, sTD-DFT, PBEh-3c, B97-3c, D3        
  Giovanni Bistoni       : ETS/NOCV, ADLD/ADEX, COVALED                  
  Martin Brehm           : Molecular dynamics                            
  Ronald Cardenas        : ETS/NOCV                                      
  Martina Colucci        : COVALED                                       
  Sebastian Ehlert       : rSCAN, r2SCAN, r2SCAN-3c, D4, dhf basis sets  
  Marvin Friede          : D4 for Fr, Ra, Ac-Lr                          
  Lars Goerigk           : TD-DFT with DH, B97 family of functionals     
  Stefan Grimme          : VdW corrections, initial TS optimization, DFT functionals, gCP, sTDA/sTD-DF 
  Waldemar Hujo          : DFT-NL                                        
  H. Jonsson             : NEB                                           
  Holger Kruse           : gCP                                           
  Marcel Mueller         : wB97X-3c, vDZP basis set                      
  Hagen Neugebauer       : wr2SCAN, Native XTB                           
  Gianluca Regni         : ADLD/ADEX                                     
  Tobias Risthaus        : pre 6.0 range-separated hybrid DFT and stability analysis
  Lukas Wittmann         : regularized MP2, r2SCAN double-hybrids, wr2SCAN        
                                                                         
We gratefully acknowledge several colleagues who have allowed us to      
interface, adapt or use parts of their codes:                            
  Ed Valeev, F. Pavosevic, A. Kumar             : LibInt (2-el integral package), F12 methods 
  Garnet Chan, S. Sharma, J. Yang, R. Olivares  : DMRG                   
  Ulf Ekstrom                                   : XCFun DFT Library      
  Mihaly Kallay                                 : mrcc  (arbitrary order and MRCC methods)
  Frank Weinhold                                : gennbo (NPA and NBO analysis)           
  Simon Mueller                                 : openCOSMO-RS                            
  Christopher J. Cramer and Donald G. Truhlar   : smd solvation model                     
  S Lehtola, MJT Oliveira, MAL Marques          : LibXC Library                           
  Liviu Ungur et al                             : ANISO software                          


 Your calculation uses the libint2 library for the computation of 2-el integrals
 For citations please refer to: http://libint.valeyev.net

 Your ORCA version has been built with support for libXC version: 7.0.0
 For citations please refer to: https://libxc.gitlab.io

 This ORCA versions uses:
   CBLAS   interface :  Fast vector & matrix operations
   LAPACKE interface :  Fast linear algebra routines
   SCALAPACK package :  Parallel linear algebra routines
   Shared memory     :  Shared parallel matrices


  ***********************************
  * Starting time: Thu Mar 19 11:28:22 2026
  * Host name:     wtch159.chemie.uni-wuerzburg.de
  * Process ID:    15291
  * Working dir.:  /Users/johannes/simulations/MethodPaper/cc-pvdz/anthracene_CASSCF4.4_tz_geom
  ***********************************

Reading of a custom orbital basis requested
Basis file: /Users/johannes/Documents/Uni/BasisSets/cc-pvdz.bas
Basis read successfully!



***************************************
The coordinates will be read from file: anthracene_opt_MP2_cc-pvtz.xyz
***************************************


================================================================================

----- Orbital basis set information -----
Basis read from file: /Users/johannes/Documents/Uni/BasisSets/cc-pvdz.bas

================================================================================
                                        WARNINGS
                       Please study these warnings very carefully!
================================================================================

WARNING: Old DensityContainer found on disk!
         Will remove this file - 
         If you want to keep old densities, please start your calculation with a different basename. 


================================================================================
                                       INPUT FILE
================================================================================
NAME = orca.inp
|  1> ! PAL8 nopop tightscf printmos RHF
|  2> %basis
|  3> GTOName = "/Users/johannes/Documents/Uni/BasisSets/cc-pvdz.bas"
|  4> end
|  5> %CASSCF
|  6> nel 4
|  7> norb 4
|  8> nroots 3
|  9> end
| 10> * xyzfile 0 1 anthracene_opt_MP2_cc-pvtz.xyz 
| 11> 
| 12>                          ****END OF INPUT****
================================================================================

                       ****************************
                       * Single Point Calculation *
                       ****************************

---------------------------------
CARTESIAN COORDINATES (ANGSTROEM)
---------------------------------
  C     -3.648732    0.709060   -0.000000
  C     -2.465580    1.404281   -0.000000
  C     -1.219771    0.720035    0.000000
  C     -1.219771   -0.720035    0.000000
  C     -2.465580   -1.404281    0.000000
  C     -3.648732   -0.709060   -0.000000
  C      0.000000    1.403583    0.000000
  C      1.219771    0.720035    0.000000
  C     -0.000000   -1.403583    0.000000
  C      1.219771   -0.720035    0.000000
  C      2.465580    1.404281    0.000000
  C      3.648732    0.709060   -0.000000
  C      3.648732   -0.709060   -0.000000
  C      2.465580   -1.404281   -0.000000
  H     -4.588790    1.244069   -0.000000
  H     -2.464790    2.487506   -0.000000
  H     -2.464791   -2.487506    0.000000
  H     -4.588790   -1.244069   -0.000000
  H     -0.000000    2.488463    0.000000
  H     -0.000000   -2.488464    0.000000
  H      2.464790    2.487506    0.000000
  H      4.588790    1.244069   -0.000000
  H      4.588790   -1.244069   -0.000000
  H      2.464791   -2.487506   -0.000000

----------------------------
CARTESIAN COORDINATES (A.U.)
----------------------------
  NO LB      ZA    FRAG     MASS         X           Y           Z
   0 C     6.0000    0    12.011   -6.895104    1.339930   -0.000000
   1 C     6.0000    0    12.011   -4.659270    2.653706   -0.000000
   2 C     6.0000    0    12.011   -2.305033    1.360668    0.000000
   3 C     6.0000    0    12.011   -2.305033   -1.360668    0.000000
   4 C     6.0000    0    12.011   -4.659271   -2.653706    0.000000
   5 C     6.0000    0    12.011   -6.895104   -1.339930   -0.000000
   6 C     6.0000    0    12.011    0.000000    2.652387    0.000000
   7 C     6.0000    0    12.011    2.305033    1.360668    0.000000
   8 C     6.0000    0    12.011   -0.000000   -2.652387    0.000000
   9 C     6.0000    0    12.011    2.305033   -1.360668    0.000000
  10 C     6.0000    0    12.011    4.659270    2.653706    0.000000
  11 C     6.0000    0    12.011    6.895104    1.339930   -0.000000
  12 C     6.0000    0    12.011    6.895104   -1.339930   -0.000000
  13 C     6.0000    0    12.011    4.659270   -2.653706   -0.000000
  14 H     1.0000    0     1.008   -8.671556    2.350950   -0.000001
  15 H     1.0000    0     1.008   -4.657778    4.700705   -0.000000
  16 H     1.0000    0     1.008   -4.657779   -4.700705    0.000000
  17 H     1.0000    0     1.008   -8.671556   -2.350949   -0.000000
  18 H     1.0000    0     1.008   -0.000000    4.702514    0.000000
  19 H     1.0000    0     1.008   -0.000000   -4.702515    0.000000
  20 H     1.0000    0     1.008    4.657779    4.700705    0.000000
  21 H     1.0000    0     1.008    8.671556    2.350950   -0.000000
  22 H     1.0000    0     1.008    8.671556   -2.350949   -0.000001
  23 H     1.0000    0     1.008    4.657779   -4.700705   -0.000000

--------------------------------
INTERNAL COORDINATES (ANGSTROEM)
--------------------------------
 C      0   0   0     0.000000000000     0.00000000     0.00000000
 C      1   0   0     1.372290189387     0.00000000     0.00000000
 C      2   1   0     1.421348765267   120.78422288     0.00000000
 C      3   2   1     1.440069230931   118.77727512     0.00000000
 C      4   3   2     1.421348842316   118.77727976     0.00000000
 C      5   4   3     1.372290196873   120.78422317     0.00000000
 C      3   2   1     1.398241305006   121.95686301   179.99999628
 C      7   3   2     1.398241253967   121.46828920   180.00001046
 C      4   3   2     1.398241289156   119.26585033   179.99998972
 C      9   4   3     1.398241336399   121.46828848     0.00000000
 C      8   7   3     1.421348728911   121.95686667   179.99999565
 C     11   8   7     1.372290142441   120.78422052   180.00000616
 C     12  11   8     1.418120522733   120.43849882     0.00000000
 C     13  12  11     1.372290153369   120.43850337     0.00000000
 H      1   2   3     1.081639131033   119.91629625   180.00000308
 H      2   1   3     1.083225616243   120.48025174   179.99999548
 H      5   4   3     1.083225617345   118.73553262   180.00000000
 H      6   5   4     1.081639103834   119.91630177   179.99999609
 H      7   3   2     1.084880885552   119.26585030     0.00000000
 H      9   4   3     1.084880969255   119.26584984   180.00000579
 H     11   8   7     1.083225590483   118.73553266     0.00000000
 H     12  11   8     1.081639106920   119.91629903   179.99999829
 H     13  12  11     1.081639079467   119.64520131   179.99999759
 H     14  13  12     1.083225613510   120.48024439   180.00000000

---------------------------
INTERNAL COORDINATES (A.U.)
---------------------------
 C      0   0   0     0.000000000000     0.00000000     0.00000000
 C      1   0   0     2.593252634209     0.00000000     0.00000000
 C      2   1   0     2.685959907141   120.78422288     0.00000000
 C      3   2   1     2.721336460346   118.77727512     0.00000000
 C      4   3   2     2.685960052743   118.77727976     0.00000000
 C      5   4   3     2.593252648355   120.78422317     0.00000000
 C      3   2   1     2.642293135598   121.95686301   179.99999628
 C      7   3   2     2.642293039148   121.46828920   180.00001046
 C      4   3   2     2.642293105646   119.26585033   179.99998972
 C      9   4   3     2.642293194922   121.46828848     0.00000000
 C      8   7   3     2.685959838439   121.95686667   179.99999565
 C     11   8   7     2.593252545494   120.78422052   180.00000616
 C     12  11   8     2.679859412858   120.43849882     0.00000000
 C     13  12  11     2.593252566145   120.43850337     0.00000000
 H      1   2   3     2.044001733386   119.91629625   180.00000308
 H      2   1   3     2.046999755947   120.48025174   179.99999548
 H      5   4   3     2.046999758031   118.73553262   180.00000000
 H      6   5   4     2.044001681987   119.91630177   179.99999609
 H      7   3   2     2.050127761619   119.26585030     0.00000000
 H      9   4   3     2.050127919794   119.26584984   180.00000579
 H     11   8   7     2.046999707268   118.73553266     0.00000000
 H     12  11   8     2.044001687819   119.91629903   179.99999829
 H     13  12  11     2.044001635939   119.64520131   179.99999759
 H     14  13  12     2.046999750783   120.48024439   180.00000000

---------------------
BASIS SET INFORMATION
---------------------
There are 2 groups of distinct atoms

 Group   1 Type C   : 19s5p1d contracted to 3s2p1d pattern {991/41/1}
 Group   2 Type H   : 5s1p contracted to 2s1p pattern {41/1}

Atom   0C    basis set group =>   1
Atom   1C    basis set group =>   1
Atom   2C    basis set group =>   1
Atom   3C    basis set group =>   1
Atom   4C    basis set group =>   1
Atom   5C    basis set group =>   1
Atom   6C    basis set group =>   1
Atom   7C    basis set group =>   1
Atom   8C    basis set group =>   1
Atom   9C    basis set group =>   1
Atom  10C    basis set group =>   1
Atom  11C    basis set group =>   1
Atom  12C    basis set group =>   1
Atom  13C    basis set group =>   1
Atom  14H    basis set group =>   2
Atom  15H    basis set group =>   2
Atom  16H    basis set group =>   2
Atom  17H    basis set group =>   2
Atom  18H    basis set group =>   2
Atom  19H    basis set group =>   2
Atom  20H    basis set group =>   2
Atom  21H    basis set group =>   2
Atom  22H    basis set group =>   2
Atom  23H    basis set group =>   2

Checking for AutoStart:
The File: orca.gbw exists
Trying to determine its content:
     ... Fine, the file contains calculation information
     ... Fine, the calculation information was read
     ... Fine, the file contains a basis set
     ... Fine, the basis set was read
     ... Fine, the file contains a geometry
     ... Fine, the geometry was read
     ... Fine, the file contains a set of orbitals
     ... Fine, the orbitals can be read
     => possible old guess file was deleted
     => GBW file was renamed to GES file
     => GES file is set as startup file
     => Guess is set to MORead
     ... now leaving AutoStart



           ************************************************************
           *        Program running with 8 parallel MPI-processes     *
           *              working on a common directory               *
           ************************************************************
------------------------------------------------------------------------------
                             ORCA STARTUP CALCULATIONS
------------------------------------------------------------------------------
------------------------------------------------------------------------------
                   ___                                                        
                  /   \      - P O W E R E D   B Y -                         
                 /     \                                                     
                 |  |  |   _    _      __       _____    __    __             
                 |  |  |  | |  | |    /  \     |  _  \  |  |  /  |          
                  \  \/   | |  | |   /    \    | | | |  |  | /  /          
                 / \  \   | |__| |  /  /\  \   | |_| |  |  |/  /          
                |  |  |   |  __  | /  /__\  \  |    /   |      \           
                |  |  |   | |  | | |   __   |  |    \   |  |\   \          
                \     /   | |  | | |  |  |  |  | |\  \  |  | \   \       
                 \___/    |_|  |_| |__|  |__|  |_| \__\ |__|  \__/        
                                                                              
                      - O R C A' S   B I G   F R I E N D -                    
                                      &                                       
                       - I N T E G R A L  F E E D E R -                       
                                                                              
 v1 FN, 2020, v2 2021, v3 2022-2024                                           
------------------------------------------------------------------------------


----------------------
SHARK INTEGRAL PACKAGE
----------------------

Number of atoms                             ...     24
Number of basis functions                   ...    344
Number of shells                            ...    212
Maximum angular momentum                    ...      2
Integral batch strategy                     ... SHARK/LIBINT Hybrid
RI-J (if used) integral strategy            ... SPLIT-RIJ (Revised 2003 algorithm where possible)
Printlevel                                  ...      1
Contraction scheme used                     ... PARTIAL GENERAL contraction
Prescreening option                         ... SCHWARTZ
   Thresh                                   ... 2.500e-11
   Tcut                                     ... 2.500e-12
   Tpresel                                  ... 2.500e-12 
Coulomb Range Separation                    ... NOT USED
Exchange Range Separation                   ... NOT USED
Multipole approximations                    ... NOT USED
Finite Nucleus Model                        ... NOT USED
CABS basis                                  ... NOT available
Auxiliary Coulomb fitting basis             ... NOT available
Auxiliary J/K fitting basis                 ... NOT available
Auxiliary Correlation fitting basis         ... NOT available
Auxiliary 'external' fitting basis          ... NOT available

Checking pre-screening integrals            ... done (  0.0 sec) Dimension = 212
Save PGC pre-screening integrals            ... done (  0.0 sec) Dimension = 212
Calculate PGC overlap integrals             ... done (  0.0 sec) Dimension = 114
Calculating pre-screening integrals (ORCA)  ... done (  0.0 sec) Dimension = 114
Shell pair information
Shell pair cut-off parameter TPreSel        ...   2.5e-12
Total number of shell pairs                 ...     22578
Shell pairs after pre-screening             ...     16034
Total number of primitive shell pairs       ...     40614
Primitive shell pairs kept                  ...     26255
          la=0 lb=0:   7765 shell pairs
          la=1 lb=0:   5226 shell pairs
          la=1 lb=1:    698 shell pairs
          la=2 lb=0:   1756 shell pairs
          la=2 lb=1:    496 shell pairs
          la=2 lb=2:     93 shell pairs

Checking whether 4 symmetric matrices of dimension 344 fit in memory
:Max Core in MB      =   4096.00
 MB in use           =     15.18
 MB left             =   4080.82
 MB needed           =      1.81
 Data fit in memory  = YES
Calculating Nuclear repulsion               ... done (  0.0 sec) ENN=    767.676862851775 Eh

Diagonalization of the overlap matrix:
Smallest eigenvalue                        ... 1.158e-04
Time for diagonalization                   ...    0.004 sec
Threshold for overlap eigenvalues          ... 1.000e-07
Number of eigenvalues below threshold      ... 0
Time for construction of square roots      ...    0.001 sec
Total time needed                          ...    0.006 sec

-------------------
DFT GRID GENERATION
-------------------

General Integration Accuracy     IntAcc      ... 4.388
Radial Grid Type                 RadialGrid  ... OptM3 with GC (2021)
Angular Grid (max. ang.)         AngularGrid ... 4 (Lebedev-302)
Angular grid pruning method      GridPruning ... 4 (adaptive)
Weight generation scheme         WeightScheme... mBecke (2022)
Basis function cutoff            BFCut       ... 1.0000e-11
Integration weight cutoff        WCut        ... 1.0000e-14
Partially contracted basis set               ... off
Rotationally invariant grid construction     ... off
Angular grids for H and He will be reduced by one unit

Total number of grid points                  ...   115566
Total number of batches                      ...     1818
Average number of points per batch           ...       63
Average number of grid points per atom       ...     4815

---------------------
SHARK GRID GENERATION
---------------------

General Integration Accuracy     IntAcc      ... 4.388
Radial Grid Type                 RadialGrid  ... OptM3 with GC (2021)
Angular Grid (max. ang.)         AngularGrid ... 4 (Lebedev-302)
Angular grid pruning method      GridPruning ... 4 (adaptive)
Weight generation scheme         WeightScheme... mBecke (2022)
Basis function cutoff            BFCut       ... 1.0000e-11
Integration weight cutoff        WCut        ... 1.0000e-14
Partially contracted basis set               ... off
Rotationally invariant grid construction     ... off
Angular grids for H and He will be reduced by one unit
Steep s-basis detected: some atoms will have their radial
                        grid points doubled.

Total number of grid points                  ...   199872
Total number of batches                      ...     3134
Average number of points per batch           ...       63
Average number of grid points per atom       ...     8328
Grids setup in   1.7 sec
Initializing property integral containers    ... done (  0.0 sec)

SHARK setup successfully completed in   1.8 seconds

Maximum memory used throughout the entire STARTUP-calculation: 51.4 MB


           ************************************************************
           *        Program running with 8 parallel MPI-processes     *
           *              working on a common directory               *
           ************************************************************
-------------------------------------------------------------------------------
                                 ORCA GUESS
                   Start orbitals & Density for SCF / CASSCF
-------------------------------------------------------------------------------

------------
SCF SETTINGS
------------
Hamiltonian:
 Ab initio Hamiltonian  Method          .... Hartree-Fock(GTOs)


General Settings:
 Integral files         IntName         .... orca
 Hartree-Fock type      HFTyp           .... CASSCF
 Total Charge           Charge          ....    0
 Multiplicity           Mult            ....    1
 Number of Electrons    NEL             ....   94
 Basis Dimension        Dim             ....  246
 Nuclear Repulsion      ENuc            ....    767.6768628518 Eh

---------------------
INITIAL GUESS: MOREAD
---------------------
Guess MOs are being read from file: orca.ges
Input Geometry matches current geometry (good)
Input basis set matches current basis set (good)
Occupation numbers will be reassigned to an Aufbau configuration
MOs were renormalized
Gram-Schmidt orthogonalization of all MOs with pivot on actives
                      ------------------
                      INITIAL GUESS DONE (   0.1 sec)
                      ------------------
             **** ENERGY FILE WAS UPDATED (orca.en.tmp) ****
Finished Guess after   0.2 sec
Maximum memory used throughout the entire GUESS-calculation: 19.3 MB


           ************************************************************
           *        Program running with 8 parallel MPI-processes     *
           *              working on a common directory               *
           ************************************************************
-------------------------------------------------------------------------------
                              ORCA-CASSCF
-------------------------------------------------------------------------------

Building the CAS space              ... done (19 configurations for Mult=1)

SYSTEM-SPECIFIC SETTINGS:
Number of active electrons          ...    4
Number of active orbitals           ...    4
Total number of electrons           ...   94
Total number of orbitals            ...  246

Determined orbital ranges:
   Internal       0 -   44 (  45 orbitals)
   Active        45 -   48 (   4 orbitals)
   External      49 -  245 ( 197 orbitals)
Number of rotation parameters      ...   9833

CI-STEP:
CI strategy                         ... General CI
Number of multiplicity blocks       ...    1
BLOCK  0 WEIGHT=   1.0000
  Multiplicity                      ...    1
  #(Configurations)                 ...   19
  #(CSFs)                           ...   20
  #(Roots)                          ...    3
    ROOT=0 WEIGHT=    0.333333
    ROOT=1 WEIGHT=    0.333333
    ROOT=2 WEIGHT=    0.333333

  PrintLevel                        ...    1
  N(GuessMat)                       ...      2048
  MaxDim(CI)                        ...        10
  MaxIter(CI)                       ...        64
  Energy Tolerance CI               ...  2.50e-09
  Residual Tolerance CI             ...  2.50e-09
  Shift(CI)                         ...  1.00e-04

INTEGRAL-TRANSFORMATION-STEP:
  Algorithm                         ... EXACT

ORBITAL-IMPROVEMENT-STEP:
  Algorithm                         ... SuperCI(PT)
  Default Parametrization           ... CAYLEY
  Act-Act rotations                 ... depends on algorithm used

  Note: SuperCI(PT) will ignore FreezeIE, FreezeAct and FreezeGrad. In general Default settings are encouraged.
        In conjunction with ShiftUp, ShiftDn or GradScaling the performance of SuperCI(PT) is less optimal.  

  MaxRot                            ... 2.00e-01 
  Max. no of vectors (DIIS)         ... 15
  DThresh (cut-off) metric          ... 1.00e-06
  Switch step at gradient           ...  3.00e-02 
  Switch step at iteration          ...        50   
  Switch step to                    ... SuperCI(PT)    

SCF-SETTINGS:
  Incremental                       ... on
  RIJCOSX approximation             ... off
  RI-JK approximation               ... off
  AO integral handling              ... DIRECT
  Integral Neglect Thresh           ...  2.50e-11
  Primitive cutoff TCut             ...  2.50e-12
  Energy convergence tolerance      ...  2.50e-08
  Orbital gradient convergence      ...  2.50e-04
  Max. number of iterations         ...        75  


FINAL ORBITALS:
  Active   Orbitals                 ... natural 
  Internal Orbitals                 ... canonical 
  External Orbitals                 ... canonical 

------------------
CAS-SCF ITERATIONS
------------------


MACRO-ITERATION   1: 
   --- Inactive Energy E0 = -533.66081087 Eh
CI-ITERATION   0: 
  -536.056557355   0.000000000001 (    0.00)
  -535.876590340   0.000000000000
  -535.860103594   0.000000000000
   CI-PROBLEM SOLVED
   DENSITIES MADE

                 <<<<<<<<<<<<<<<<<<INITIAL CI STATE CHECK>>>>>>>>>>>>>>>>>>

BLOCK  0 MULT= 1 NROOTS= 3 
ROOT   0:  E=    -536.0565573551 Eh
      0.95660 [     0]: 2200
      0.01866 [     9]: 1111
      0.01261 [     3]: 2020
      0.00596 [    15]: 0202
      0.00305 [    13]: 0220
      0.00251 [     5]: 2002
ROOT   1:  E=    -535.8765903400 Eh  4.897 eV  39498.2 cm**-1
      0.91868 [     1]: 2110
      0.06801 [     7]: 1201
      0.01193 [    11]: 1021
ROOT   2:  E=    -535.8601035939 Eh  5.346 eV  43116.6 cm**-1
      0.49840 [     2]: 2101
      0.49274 [     6]: 1210
      0.00469 [    12]: 1012
      0.00417 [    16]: 0121

                 <<<<<<<<<<<<<<<<<<INITIAL CI STATE CHECK>>>>>>>>>>>>>>>>>>

   E(CAS)=  -535.931083763 Eh DE=    0.000000e+00
   --- Energy gap subspaces: Ext-Act = 0.044   Act-Int = 0.043
   N(occ)=  1.79121 1.49800 0.50030 0.21049
   ||g|| =     9.729055e-02 Max(G)=    1.683937e-02 Rot=78,36
   --- Orbital Update [SuperCI(PT)]
   --- Canonicalize Internal Space
   --- Canonicalize External Space
   --- SX_PT (Skipped TA=0 IT=0): ||X|| =      0.014861316 Max(X)(78,36) =     -0.003493540 
   --- SFit(Active Orbitals)

MACRO-ITERATION   2: 
   --- Inactive Energy E0 = -533.67345394 Eh
CI-ITERATION   0: 
  -536.057227535   0.000000000001 (    0.00)
  -535.877311118   0.000000000000
  -535.860803697   0.000000000000
   CI-PROBLEM SOLVED
   DENSITIES MADE
   E(CAS)=  -535.931780783 Eh DE=   -6.970204e-04
   --- Energy gap subspaces: Ext-Act = 0.044   Act-Int = 0.043
   N(occ)=  1.79064 1.49858 0.50090 0.20988
   ||g|| =     1.993019e-02 Max(G)=    3.718318e-03 Rot=80,28
   --- Orbital Update [SuperCI(PT)]
   --- Canonicalize Internal Space
   --- Canonicalize External Space
   --- SX_PT (Skipped TA=0 IT=0): ||X|| =      0.004201807 Max(X)(102,47) =      0.001275560 
   --- SFit(Active Orbitals)

MACRO-ITERATION   3: 
   --- Inactive Energy E0 = -533.67022553 Eh
CI-ITERATION   0: 
  -536.057224608   0.000000000000 (    0.00)
  -535.877405444   0.000000000001
  -535.860804598   0.000000000001
   CI-PROBLEM SOLVED
   DENSITIES MADE
   E(CAS)=  -535.931811550 Eh DE=   -3.076659e-05
   --- Energy gap subspaces: Ext-Act = 0.044   Act-Int = 0.043
   N(occ)=  1.79156 1.49773 0.50005 0.21066
   ||g|| =     5.900825e-03 Max(G)=    7.758272e-04 Rot=90,24
   --- Orbital Update [SuperCI(PT)]
   --- Canonicalize Internal Space
   --- Canonicalize External Space
   --- SX_PT (Skipped TA=0 IT=0): ||X|| =      0.001445783 Max(X)(45,39) =      0.000555836 
   --- SFit(Active Orbitals)

MACRO-ITERATION   4: 
   --- Inactive Energy E0 = -533.67173758 Eh
CI-ITERATION   0: 
  -536.057210006   0.000000000000 (    0.00)
  -535.877412608   0.000000000001
  -535.860821363   0.000000000001
   CI-PROBLEM SOLVED
   DENSITIES MADE
   E(CAS)=  -535.931814659 Eh DE=   -3.108621e-06
   --- Energy gap subspaces: Ext-Act = 0.044   Act-Int = 0.043
   N(occ)=  1.79123 1.49807 0.50037 0.21033
   ||g|| =     1.211724e-03 Max(G)=   -2.053806e-04 Rot=49,45
   --- Orbital Update [SuperCI(PT)]
   --- Canonicalize Internal Space
   --- Canonicalize External Space
   --- SX_PT (Skipped TA=0 IT=0): ||X|| =      0.000551992 Max(X)(50,47) =      0.000310759 
   --- SFit(Active Orbitals)

MACRO-ITERATION   5: 
   --- Inactive Energy E0 = -533.67174587 Eh
CI-ITERATION   0: 
  -536.057201935   0.000000000001 (    0.00)
  -535.877422924   0.000000000001
  -535.860819579   0.000000000001
   CI-PROBLEM SOLVED
   DENSITIES MADE
   E(CAS)=  -535.931814812 Eh DE=   -1.539566e-07
   --- Energy gap subspaces: Ext-Act = 0.044   Act-Int = 0.043
   N(occ)=  1.79141 1.49790 0.50020 0.21049
   ||g|| =     4.416401e-04 Max(G)=    1.317325e-04 Rot=48,44
   --- Orbital Update [SuperCI(PT)]
   --- Canonicalize Internal Space
   --- Canonicalize External Space
   --- SX_PT (Skipped TA=0 IT=0): ||X|| =      0.000318807 Max(X)(46,43) =      0.000192294 
   --- SFit(Active Orbitals)

MACRO-ITERATION   6: 
   --- Inactive Energy E0 = -533.67198352 Eh
CI-ITERATION   0: 
  -536.057193066   0.000000000000 (    0.00)
  -535.877429704   0.000000000001
  -535.860821772   0.000000000001
   CI-PROBLEM SOLVED
   DENSITIES MADE
   E(CAS)=  -535.931814847 Eh DE=   -3.491868e-08
   --- Energy gap subspaces: Ext-Act = 0.044   Act-Int = 0.043
   N(occ)=  1.79137 1.49794 0.50025 0.21043
   ||g|| =     3.108986e-04 Max(G)=   -7.190956e-05 Rot=49,45
   --- Orbital Update [SuperCI(PT)]
   --- Canonicalize Internal Space
   --- Canonicalize External Space
   --- SX_PT (Skipped TA=0 IT=0): ||X|| =      0.000155153 Max(X)(50,47) =      0.000111250 
   --- SFit(Active Orbitals)

MACRO-ITERATION   7: 
   --- Inactive Energy E0 = -533.67205724 Eh
CI-ITERATION   0: 
  -536.057189853   0.000000000001 (    0.00)
  -535.877432266   0.000000000000
  -535.860822466   0.000000000001
   CI-PROBLEM SOLVED
   DENSITIES MADE
   E(CAS)=  -535.931814862 Eh DE=   -1.436126e-08
   --- Energy gap subspaces: Ext-Act = 0.044   Act-Int = 0.043
   N(occ)=  1.79137 1.49795 0.50026 0.21042
   ||g|| =     1.430540e-04 Max(G)=    2.158618e-05 Rot=72,34
                     ---- THE CAS-SCF ENERGY   HAS CONVERGED ----
                     ---- THE CAS-SCF GRADIENT HAS CONVERGED ----
                            --- FINALIZING ORBITALS ---
                    ---- DOING ONE FINAL ITERATION FOR PRINTING ----
   --- Canonicalize Internal Space
   --- Canonicalize External Space

MACRO-ITERATION   8: 
   --- Inactive Energy E0 = -533.67205725 Eh
   --- All densities will be recomputed
CI-ITERATION   0: 
  -536.057189855   0.000000000001 (    0.00)
  -535.877432268   0.000000000000
  -535.860822468   0.000000000000
   CI-PROBLEM SOLVED
   DENSITIES MADE
   E(CAS)=  -535.931814864 Eh DE=   -1.870831e-09
   --- Energy gap subspaces: Ext-Act = 0.044   Act-Int = 0.043
   N(occ)=  1.79137 1.49795 0.50026 0.21042
   ||g|| =     1.430599e-04 Max(G)=    2.164016e-05 Rot=72,34
--------------
CASSCF RESULTS
--------------

Final CASSCF energy       : -535.931814864 Eh  -14583.4461 eV

----------------
ORBITAL ENERGIES
----------------

  NO   OCC          E(Eh)            E(eV) 
   0   2.0000     -11.249625      -306.1179 
   1   2.0000     -11.249460      -306.1134 
   2   2.0000     -11.248798      -306.0954 
   3   2.0000     -11.248539      -306.0883 
   4   2.0000     -11.246057      -306.0208 
   5   2.0000     -11.245999      -306.0192 
   6   2.0000     -11.242395      -305.9211 
   7   2.0000     -11.242393      -305.9211 
   8   2.0000     -11.242258      -305.9174 
   9   2.0000     -11.242256      -305.9174 
  10   2.0000     -11.240835      -305.8787 
  11   2.0000     -11.240834      -305.8787 
  12   2.0000     -11.239958      -305.8548 
  13   2.0000     -11.239958      -305.8548 
  14   2.0000      -1.189394       -32.3651 
  15   2.0000      -1.148281       -31.2463 
  16   2.0000      -1.085858       -29.5477 
  17   2.0000      -1.067370       -29.0446 
  18   2.0000      -1.024367       -27.8744 
  19   2.0000      -1.007625       -27.4189 
  20   2.0000      -0.961607       -26.1667 
  21   2.0000      -0.881723       -23.9929 
  22   2.0000      -0.844015       -22.9668 
  23   2.0000      -0.818141       -22.2627 
  24   2.0000      -0.811069       -22.0703 
  25   2.0000      -0.746041       -20.3008 
  26   2.0000      -0.709783       -19.3142 
  27   2.0000      -0.688481       -18.7345 
  28   2.0000      -0.649343       -17.6695 
  29   2.0000      -0.639538       -17.4027 
  30   2.0000      -0.628991       -17.1157 
  31   2.0000      -0.618293       -16.8246 
  32   2.0000      -0.591152       -16.0861 
  33   2.0000      -0.580929       -15.8079 
  34   2.0000      -0.572395       -15.5757 
  35   2.0000      -0.548982       -14.9386 
  36   2.0000      -0.542861       -14.7720 
  37   2.0000      -0.535892       -14.5824 
  38   2.0000      -0.497378       -13.5343 
  39   2.0000      -0.486455       -13.2371 
  40   2.0000      -0.484538       -13.1850 
  41   2.0000      -0.472858       -12.8671 
  42   2.0000      -0.406481       -11.0609 
  43   2.0000      -0.402501       -10.9526 
  44   2.0000      -0.340510        -9.2657 
  45   1.7914      -0.297519        -8.0959 
  46   1.4980      -0.214126        -5.8267 
  47   0.5003       0.014276         0.3885 
  48   0.2104       0.100547         2.7360 
  49   0.0000       0.144685         3.9371 
  50   0.0000       0.187035         5.0895 
  51   0.0000       0.187515         5.1025 
  52   0.0000       0.189545         5.1578 
  53   0.0000       0.191572         5.2129 
  54   0.0000       0.220005         5.9866 
  55   0.0000       0.220694         6.0054 
  56   0.0000       0.224598         6.1116 
  57   0.0000       0.245472         6.6796 
  58   0.0000       0.246467         6.7067 
  59   0.0000       0.260571         7.0905 
  60   0.0000       0.284177         7.7329 
  61   0.0000       0.310822         8.4579 
  62   0.0000       0.339266         9.2319 
  63   0.0000       0.368785        10.0351 
  64   0.0000       0.401893        10.9361 
  65   0.0000       0.431683        11.7467 
  66   0.0000       0.431742        11.7483 
  67   0.0000       0.433646        11.8001 
  68   0.0000       0.464809        12.6481 
  69   0.0000       0.466704        12.6997 
  70   0.0000       0.475068        12.9272 
  71   0.0000       0.484583        13.1862 
  72   0.0000       0.512951        13.9581 
  73   0.0000       0.518459        14.1080 
  74   0.0000       0.590548        16.0696 
  75   0.0000       0.595922        16.2159 
  76   0.0000       0.639345        17.3975 
  77   0.0000       0.647831        17.6284 
  78   0.0000       0.660282        17.9672 
  79   0.0000       0.662934        18.0393 
  80   0.0000       0.675421        18.3791 
  81   0.0000       0.679992        18.5035 
  82   0.0000       0.682600        18.5745 
  83   0.0000       0.696041        18.9402 
  84   0.0000       0.699502        19.0344 
  85   0.0000       0.705150        19.1881 
  86   0.0000       0.710432        19.3318 
  87   0.0000       0.717081        19.5128 
  88   0.0000       0.729451        19.8494 
  89   0.0000       0.732823        19.9411 
  90   0.0000       0.737519        20.0689 
  91   0.0000       0.741681        20.1822 
  92   0.0000       0.742884        20.2149 
  93   0.0000       0.760016        20.6811 
  94   0.0000       0.762680        20.7536 
  95   0.0000       0.767203        20.8767 
  96   0.0000       0.774464        21.0742 
  97   0.0000       0.775263        21.0960 
  98   0.0000       0.784759        21.3544 
  99   0.0000       0.791163        21.5286 
 100   0.0000       0.803665        21.8688 
 101   0.0000       0.847998        23.0752 
 102   0.0000       0.848089        23.0777 
 103   0.0000       0.860938        23.4273 
 104   0.0000       0.870474        23.6868 
 105   0.0000       0.871269        23.7084 
 106   0.0000       0.883552        24.0427 
 107   0.0000       0.903844        24.5948 
 108   0.0000       0.911994        24.8166 
 109   0.0000       0.914872        24.8949 
 110   0.0000       0.928942        25.2778 
 111   0.0000       0.943836        25.6831 
 112   0.0000       0.952818        25.9275 
 113   0.0000       0.954317        25.9683 
 114   0.0000       0.986306        26.8387 
 115   0.0000       0.999189        27.1893 
 116   0.0000       1.000484        27.2246 
 117   0.0000       1.043653        28.3993 
 118   0.0000       1.063200        28.9311 
 119   0.0000       1.095412        29.8077 
 120   0.0000       1.103275        30.0216 
 121   0.0000       1.119408        30.4606 
 122   0.0000       1.130661        30.7669 
 123   0.0000       1.130845        30.7718 
 124   0.0000       1.136252        30.9190 
 125   0.0000       1.139235        31.0002 
 126   0.0000       1.142415        31.0867 
 127   0.0000       1.150795        31.3147 
 128   0.0000       1.158397        31.5216 
 129   0.0000       1.180983        32.1362 
 130   0.0000       1.195902        32.5421 
 131   0.0000       1.208930        32.8967 
 132   0.0000       1.217305        33.1246 
 133   0.0000       1.219192        33.1759 
 134   0.0000       1.233637        33.5690 
 135   0.0000       1.235060        33.6077 
 136   0.0000       1.250263        34.0214 
 137   0.0000       1.254706        34.1423 
 138   0.0000       1.282572        34.9006 
 139   0.0000       1.283117        34.9154 
 140   0.0000       1.301653        35.4198 
 141   0.0000       1.313378        35.7388 
 142   0.0000       1.325807        36.0770 
 143   0.0000       1.332822        36.2679 
 144   0.0000       1.340473        36.4761 
 145   0.0000       1.349416        36.7195 
 146   0.0000       1.391482        37.8642 
 147   0.0000       1.392665        37.8964 
 148   0.0000       1.413690        38.4685 
 149   0.0000       1.540072        41.9075 
 150   0.0000       1.541078        41.9349 
 151   0.0000       1.547950        42.1219 
 152   0.0000       1.624028        44.1920 
 153   0.0000       1.625133        44.2221 
 154   0.0000       1.632533        44.4235 
 155   0.0000       1.645295        44.7708 
 156   0.0000       1.663887        45.2767 
 157   0.0000       1.677223        45.6396 
 158   0.0000       1.693757        46.0895 
 159   0.0000       1.700217        46.2653 
 160   0.0000       1.737581        47.2820 
 161   0.0000       1.741582        47.3909 
 162   0.0000       1.743288        47.4373 
 163   0.0000       1.754877        47.7526 
 164   0.0000       1.777707        48.3739 
 165   0.0000       1.785204        48.5779 
 166   0.0000       1.786491        48.6129 
 167   0.0000       1.813757        49.3548 
 168   0.0000       1.842786        50.1448 
 169   0.0000       1.867332        50.8127 
 170   0.0000       1.872955        50.9657 
 171   0.0000       1.882454        51.2242 
 172   0.0000       1.887336        51.3570 
 173   0.0000       1.892622        51.5009 
 174   0.0000       1.914561        52.0978 
 175   0.0000       1.915578        52.1255 
 176   0.0000       1.917344        52.1736 
 177   0.0000       1.936622        52.6982 
 178   0.0000       1.962795        53.4104 
 179   0.0000       1.966632        53.5148 
 180   0.0000       1.972215        53.6667 
 181   0.0000       1.974358        53.7250 
 182   0.0000       1.983337        53.9693 
 183   0.0000       1.998954        54.3943 
 184   0.0000       2.006316        54.5946 
 185   0.0000       2.027053        55.1589 
 186   0.0000       2.036545        55.4172 
 187   0.0000       2.043567        55.6083 
 188   0.0000       2.045610        55.6639 
 189   0.0000       2.048011        55.7292 
 190   0.0000       2.052948        55.8636 
 191   0.0000       2.084352        56.7181 
 192   0.0000       2.114614        57.5416 
 193   0.0000       2.120139        57.6919 
 194   0.0000       2.127927        57.9038 
 195   0.0000       2.138988        58.2048 
 196   0.0000       2.150886        58.5286 
 197   0.0000       2.151399        58.5425 
 198   0.0000       2.171784        59.0972 
 199   0.0000       2.177146        59.2431 
 200   0.0000       2.180207        59.3264 
 201   0.0000       2.186783        59.5054 
 202   0.0000       2.236446        60.8568 
 203   0.0000       2.241564        60.9961 
 204   0.0000       2.259359        61.4803 
 205   0.0000       2.266368        61.6710 
 206   0.0000       2.268425        61.7270 
 207   0.0000       2.320784        63.1518 
 208   0.0000       2.326013        63.2940 
 209   0.0000       2.342203        63.7346 
 210   0.0000       2.344628        63.8006 
 211   0.0000       2.345144        63.8146 
 212   0.0000       2.350624        63.9637 
 213   0.0000       2.456043        66.8323 
 214   0.0000       2.487070        67.6766 
 215   0.0000       2.491567        67.7990 
 216   0.0000       2.495390        67.9030 
 217   0.0000       2.528823        68.8128 
 218   0.0000       2.533110        68.9294 
 219   0.0000       2.546827        69.3027 
 220   0.0000       2.608948        70.9931 
 221   0.0000       2.621633        71.3382 
 222   0.0000       2.650187        72.1153 
 223   0.0000       2.668321        72.6087 
 224   0.0000       2.745653        74.7130 
 225   0.0000       2.745991        74.7222 
 226   0.0000       2.780629        75.6648 
 227   0.0000       2.793782        76.0227 
 228   0.0000       2.793820        76.0237 
 229   0.0000       2.804527        76.3150 
 230   0.0000       2.927996        79.6748 
 231   0.0000       2.928319        79.6836 
 232   0.0000       2.978824        81.0579 
 233   0.0000       2.991745        81.4095 
 234   0.0000       3.040266        82.7298 
 235   0.0000       3.057237        83.1916 
 236   0.0000       3.106442        84.5306 
 237   0.0000       3.109386        84.6107 
 238   0.0000       3.140454        85.4561 
 239   0.0000       3.160666        86.0061 
 240   0.0000       3.248128        88.3860 
 241   0.0000       3.284220        89.3682 
 242   0.0000       3.341268        90.9205 
 243   0.0000       3.712780       101.0299 
 244   0.0000       3.937801       107.1530 
 245   0.0000       3.952993       107.5664 


---------------------------------------------
CAS-SCF STATES FOR BLOCK  0 MULT= 1 NROOTS= 3
---------------------------------------------

ROOT   0:  E=    -536.0571898546 Eh
      0.95673 [     0]: 2200
      0.01865 [     9]: 1111
      0.01251 [     3]: 2020
      0.00592 [    15]: 0202
      0.00306 [    13]: 0220
      0.00252 [     5]: 2002
ROOT   1:  E=    -535.8774322682 Eh  4.891 eV  39452.2 cm**-1
      0.91892 [     1]: 2110
      0.06778 [     7]: 1201
      0.01193 [    11]: 1021
ROOT   2:  E=    -535.8608224683 Eh  5.343 eV  43097.7 cm**-1
      0.49854 [     2]: 2101
      0.49261 [     6]: 1210
      0.00469 [    12]: 1012
      0.00416 [    16]: 0121


--------------
DENSITY MATRIX
--------------

                  0          1          2          3    
      0       1.791366  -0.000000  -0.000000  -0.000000
      1      -0.000000   1.497952  -0.000000   0.000000
      2      -0.000000  -0.000000   0.500260  -0.000000
      3      -0.000000   0.000000  -0.000000   0.210422
Trace of the electron density:  4.000000

-----------------
ENERGY COMPONENTS
-----------------

One electron energy          :  -2247.353743238 Eh      -61153.6043 eV
Two electron energy          :    943.745065523 Eh       25680.6088 eV
Nuclear repulsion energy     :    767.676862852 Eh       20889.5494 eV
                               ----------------
                                 -535.931814864

Kinetic energy               :    535.785954792 Eh       14579.4770 eV
Potential energy             :  -1071.717769656 Eh      -29162.9231 eV
Virial ratio                 :     -2.000272236 
                               ----------------
                                 -535.931814864

Core energy                  :   -533.672057247 Eh   -14521.9550 eV


----------------------------
LOEWDIN REDUCED ACTIVE MOs  
----------------------------

                     42        43        44        45        46        47   
                  -0.40648  -0.40250  -0.34051  -0.29752  -0.21413   0.01428
                   2.00000   2.00000   2.00000   1.79137   1.49795   0.50026
                  --------  --------  --------  --------  --------  --------
 0 C  pz             13.8       1.9       4.4       6.9       4.9       5.0
 1 C  pz              3.1       8.6      15.1       0.4       7.1       7.3
 2 C  pz              3.0       6.8       3.6      15.7       1.5       1.4
 3 C  pz              3.0       6.8       3.6      15.7       1.5       1.4
 4 C  pz              3.1       8.6      15.1       0.4       7.1       7.3
 5 C  pz             13.8       1.9       4.4       6.9       4.9       5.0
 6 C  pz              7.3      12.8       0.0       0.0      18.0      15.4
 7 C  pz              3.0       6.8       3.6      15.7       1.5       1.4
 8 C  pz              7.3      12.8       0.0       0.0      18.0      15.4
 9 C  pz              3.0       6.8       3.6      15.7       1.5       1.4
10 C  pz              3.1       8.6      15.1       0.4       7.1       7.3
11 C  pz             13.8       1.9       4.4       6.9       4.9       5.0
12 C  pz             13.8       1.9       4.4       6.9       4.9       5.0
13 C  pz              3.1       8.6      15.1       0.4       7.1       7.3

                     48        49        50        51        52        53   
                   0.10055   0.14469   0.18703   0.18751   0.18955   0.19157
                   0.21042   0.00000   0.00000   0.00000   0.00000   0.00000
                  --------  --------  --------  --------  --------  --------
 0 C  pz              7.0       3.9       1.4       0.0       0.0       0.0
 1 C  pz              0.2      13.5       6.8       0.0       0.0       0.0
 2 C  pz             13.3       3.5       6.2       0.0       0.0       0.0
 3 C  pz             13.3       3.5       6.2       0.0       0.0       0.0
 4 C  pz              0.2      13.5       6.8       0.0       0.0       0.0
 5 C  pz              7.0       3.9       1.4       0.0       0.0       0.0
 6 C  pz              0.0       0.0      11.7       0.0       0.0       0.0
 7 C  pz             13.3       3.5       6.2       0.0       0.0       0.0
 8 C  pz              0.0       0.0      11.7       0.0       0.0       0.0
 9 C  pz             13.3       3.5       6.2       0.0       0.0       0.0
10 C  pz              0.2      13.5       6.8       0.0       0.0       0.0
11 C  pz              7.0       3.9       1.4       0.0       0.0       0.0
12 C  pz              7.0       3.9       1.4       0.0       0.0       0.0
13 C  pz              0.2      13.5       6.8       0.0       0.0       0.0
14 H  s               0.0       0.0       0.0       8.0       0.4      10.4
15 H  s               0.0       0.0       0.0       6.1       8.9       6.4
16 H  s               0.0       0.0       0.0       6.1       8.9       6.4
17 H  s               0.0       0.0       0.0       8.0       0.4      10.4
18 H  s               0.0       0.0       0.0       5.4      17.5       0.0
19 H  s               0.0       0.0       0.0       5.4      17.5       0.0
20 H  s               0.0       0.0       0.0       6.1       8.9       6.4
21 H  s               0.0       0.0       0.0       8.0       0.4      10.4
22 H  s               0.0       0.0       0.0       8.0       0.4      10.4
23 H  s               0.0       0.0       0.0       6.1       8.9       6.4

------------------
MOLECULAR ORBITALS
------------------
                      0         1         2         3         4         5   
                 -11.24963 -11.24946 -11.24880 -11.24854 -11.24606 -11.24600
                   2.00000   2.00000   2.00000   2.00000   2.00000   2.00000
                  --------  --------  --------  --------  --------  --------
  0C   1s        -0.001735  0.001932 -0.002940  0.003323 -0.001761 -0.002392
  0C   2s         0.000251 -0.000111 -0.000156  0.000070 -0.000048  0.000150
  0C   3s        -0.000929  0.000174  0.001970 -0.000611 -0.000188 -0.002792
  0C   1pz       -0.000000 -0.000000  0.000000 -0.000000 -0.000000 -0.000000
  0C   1px        0.000048 -0.000054  0.000017  0.000013 -0.000029 -0.000054
  0C   1py        0.000010 -0.000021  0.000011  0.000001 -0.000030 -0.000016
  0C   2pz        0.000000 -0.000000  0.000000 -0.000000  0.000000 -0.000000
  0C   2px       -0.000219 -0.000008  0.000793 -0.000191 -0.000044 -0.001333
  0C   2py       -0.000357  0.000151 -0.000283 -0.000005 -0.000020  0.000373
  0C   1dz2       0.000051 -0.000030 -0.000005 -0.000029  0.000000  0.000076
  0C   1dxz      -0.000000  0.000000 -0.000000  0.000000  0.000000 -0.000000
  0C   1dyz       0.000000  0.000000 -0.000000  0.000000 -0.000000  0.000000
  0C   1dx2y2    -0.000017  0.000010 -0.000033  0.000020  0.000003  0.000026
  0C   1dxy       0.000008 -0.000011  0.000013  0.000011 -0.000008 -0.000042
  1C   1s        -0.032202  0.033935 -0.036226  0.039818 -0.015629 -0.021432
  1C   2s         0.000205 -0.000032 -0.000012  0.000213 -0.000257 -0.000462
  1C   3s        -0.001270  0.001209 -0.001804 -0.000017  0.001049  0.004549
  1C   1pz        0.000000  0.000000  0.000000 -0.000000  0.000000  0.000000
  1C   1px        0.000053 -0.000001  0.000021 -0.000044  0.000046  0.000085
  1C   1py       -0.000037  0.000047 -0.000016  0.000025 -0.000017 -0.000036
  1C   2pz       -0.000000  0.000000 -0.000000 -0.000000  0.000000  0.000000
  1C   2px       -0.001367  0.000620  0.000481 -0.000454  0.000037 -0.000146
  1C   2py        0.000291 -0.000398  0.001683 -0.000782 -0.000424 -0.002071
  1C   1dz2      -0.000071  0.000099 -0.000134  0.000188 -0.000101 -0.000172
  1C   1dxz       0.000000 -0.000000  0.000000 -0.000000  0.000000  0.000000
  1C   1dyz      -0.000000  0.000000 -0.000000  0.000000 -0.000000 -0.000000
  1C   1dx2y2    -0.000022  0.000008  0.000018 -0.000045  0.000002  0.000030
  1C   1dxy      -0.000076  0.000086 -0.000077  0.000067 -0.000030 -0.000025
  2C   1s        -0.486218  0.499602 -0.475933  0.499363 -0.114182 -0.151025
  2C   2s        -0.004149  0.004645 -0.004916  0.004990 -0.001458 -0.001765
  2C   3s         0.005606 -0.006554  0.010168 -0.008695  0.003351  0.004648
  2C   1pz       -0.000000  0.000000 -0.000000  0.000000 -0.000000 -0.000000
  2C   1px        0.000040  0.000057  0.000002  0.000019 -0.000112 -0.000138
  2C   1py        0.000032 -0.000007  0.000128 -0.000136 -0.000040  0.000016
  2C   2pz        0.000000  0.000000  0.000000 -0.000000  0.000000  0.000000
  2C   2px       -0.000194 -0.000354 -0.001477  0.000007  0.001916  0.006381
  2C   2py        0.000877 -0.001114 -0.004548  0.003879  0.000295  0.000853
  2C   1dz2       0.000039 -0.000003  0.000244 -0.000302  0.000188  0.000410
  2C   1dxz      -0.000000  0.000000 -0.000000  0.000000 -0.000000 -0.000000
  2C   1dyz      -0.000000  0.000000  0.000000 -0.000000 -0.000000  0.000000
  2C   1dx2y2    -0.000135  0.000111 -0.000096  0.000005 -0.000071  0.000068
  2C   1dxy       0.000006  0.000001 -0.000033  0.000026 -0.000050 -0.000028
  3C   1s        -0.486225  0.499608  0.475927 -0.499357 -0.114232  0.150988
  3C   2s        -0.004149  0.004645  0.004916 -0.004990 -0.001458  0.001764
  3C   3s         0.005606 -0.006555 -0.010168  0.008695  0.003352 -0.004647
  3C   1pz        0.000000 -0.000000 -0.000000  0.000000 -0.000000 -0.000000
  3C   1px        0.000040  0.000057 -0.000002 -0.000019 -0.000112  0.000138
  3C   1py       -0.000032  0.000007  0.000128 -0.000136  0.000040  0.000016
  3C   2pz       -0.000000  0.000000  0.000000 -0.000000  0.000000 -0.000000
  3C   2px       -0.000194 -0.000354  0.001477 -0.000007  0.001918 -0.006381
  3C   2py       -0.000877  0.001114 -0.004548  0.003879 -0.000295  0.000853
  3C   1dz2       0.000039 -0.000003 -0.000244  0.000302  0.000188 -0.000409
  3C   1dxz       0.000000 -0.000000  0.000000 -0.000000  0.000000  0.000000
  3C   1dyz      -0.000000  0.000000  0.000000 -0.000000 -0.000000 -0.000000
  3C   1dx2y2    -0.000135  0.000111  0.000096 -0.000005 -0.000071 -0.000068
  3C   1dxy      -0.000006 -0.000001 -0.000033  0.000026  0.000050 -0.000028
  4C   1s        -0.032203  0.033935  0.036226 -0.039818 -0.015636  0.021427
  4C   2s         0.000205 -0.000032  0.000012 -0.000213 -0.000257  0.000462
  4C   3s        -0.001270  0.001209  0.001804  0.000017  0.001051 -0.004549
  4C   1pz        0.000000 -0.000000 -0.000000 -0.000000  0.000000  0.000000
  4C   1px        0.000053 -0.000001 -0.000021  0.000044  0.000046 -0.000085
  4C   1py        0.000037 -0.000047 -0.000016  0.000025  0.000017 -0.000036
  4C   2pz       -0.000000 -0.000000 -0.000000  0.000000 -0.000000  0.000000
  4C   2px       -0.001367  0.000620 -0.000481  0.000454  0.000037  0.000146
  4C   2py       -0.000291  0.000398  0.001683 -0.000782  0.000424 -0.002071
  4C   1dz2      -0.000071  0.000099  0.000134 -0.000188 -0.000101  0.000172
  4C   1dxz       0.000000 -0.000000 -0.000000  0.000000  0.000000 -0.000000
  4C   1dyz       0.000000 -0.000000 -0.000000  0.000000  0.000000 -0.000000
  4C   1dx2y2    -0.000022  0.000008 -0.000018  0.000045  0.000002 -0.000030
  4C   1dxy       0.000076 -0.000086 -0.000077  0.000067  0.000030 -0.000025
  5C   1s        -0.001735  0.001932  0.002940 -0.003322 -0.001762  0.002391
  5C   2s         0.000251 -0.000111  0.000156 -0.000070 -0.000048 -0.000150
  5C   3s        -0.000929  0.000174 -0.001970  0.000611 -0.000189  0.002792
  5C   1pz        0.000000  0.000000  0.000000 -0.000000 -0.000000  0.000000
  5C   1px        0.000048 -0.000054 -0.000017 -0.000013 -0.000029  0.000054
  5C   1py       -0.000010  0.000021  0.000011  0.000001  0.000030 -0.000016
  5C   2pz       -0.000000 -0.000000 -0.000000  0.000000  0.000000  0.000000
  5C   2px       -0.000219 -0.000008 -0.000793  0.000191 -0.000044  0.001333
  5C   2py        0.000357 -0.000151 -0.000283 -0.000005  0.000020  0.000373
  5C   1dz2       0.000051 -0.000030  0.000005  0.000029  0.000000 -0.000076
  5C   1dxz      -0.000000  0.000000  0.000000 -0.000000 -0.000000  0.000000
  5C   1dyz       0.000000 -0.000000  0.000000  0.000000  0.000000 -0.000000
  5C   1dx2y2    -0.000017  0.000010  0.000033 -0.000020  0.000003 -0.000026
  5C   1dxy      -0.000008  0.000011  0.000013  0.000011  0.000008 -0.000042
  6C   1s        -0.161985  0.000001 -0.214828  0.000001  0.689275  0.675066
  6C   2s        -0.000522  0.000000 -0.001674  0.000000  0.006523  0.006979
  6C   3s        -0.001984  0.000000  0.003409 -0.000000 -0.010342 -0.016873
  6C   1pz        0.000000 -0.000000  0.000000  0.000000 -0.000000 -0.000000
  6C   1px        0.000000  0.000104  0.000000  0.000136 -0.000000 -0.000000
  6C   1py       -0.000102  0.000000 -0.000070  0.000000  0.000040  0.000021
  6C   2pz       -0.000000  0.000000 -0.000000  0.000000  0.000000  0.000000
  6C   2px       -0.000000 -0.002352  0.000000  0.000764  0.000000 -0.000000
  6C   2py        0.000721 -0.000000  0.000896 -0.000000  0.002121  0.004362
  6C   1dz2      -0.000111  0.000000 -0.000295  0.000000 -0.000401 -0.000395
  6C   1dxz      -0.000000 -0.000000  0.000000 -0.000000 -0.000000  0.000000
  6C   1dyz      -0.000000  0.000000 -0.000000  0.000000 -0.000000 -0.000000
  6C   1dx2y2    -0.000048  0.000000  0.000072 -0.000000 -0.000053 -0.000026
  6C   1dxy      -0.000000 -0.000099 -0.000000 -0.000113 -0.000000 -0.000000
  7C   1s        -0.486226 -0.499594 -0.475939 -0.499358 -0.114182 -0.151025
  7C   2s        -0.004149 -0.004645 -0.004916 -0.004990 -0.001458 -0.001765
  7C   3s         0.005606  0.006554  0.010168  0.008695  0.003351  0.004648
  7C   1pz       -0.000000 -0.000000 -0.000000  0.000000 -0.000000 -0.000000
  7C   1px       -0.000040  0.000057 -0.000002  0.000019  0.000112  0.000138
  7C   1py        0.000032  0.000007  0.000128  0.000136 -0.000040  0.000016
  7C   2pz        0.000000  0.000000 -0.000000 -0.000000  0.000000  0.000000
  7C   2px        0.000194 -0.000354  0.001477  0.000007 -0.001916 -0.006381
  7C   2py        0.000877  0.001114 -0.004548 -0.003879  0.000295  0.000853
  7C   1dz2       0.000039  0.000003  0.000244  0.000302  0.000188  0.000410
  7C   1dxz      -0.000000 -0.000000  0.000000  0.000000  0.000000  0.000000
  7C   1dyz      -0.000000 -0.000000  0.000000  0.000000 -0.000000 -0.000000
  7C   1dx2y2    -0.000135 -0.000111 -0.000096 -0.000005 -0.000071  0.000068
  7C   1dxy      -0.000006  0.000001  0.000033  0.000026  0.000050  0.000028
  8C   1s        -0.161988  0.000001  0.214827 -0.000001  0.689495 -0.674841
  8C   2s        -0.000522  0.000000  0.001674 -0.000000  0.006526 -0.006977
  8C   3s        -0.001984  0.000000 -0.003409  0.000000 -0.010348  0.016870
  8C   1pz       -0.000000  0.000000  0.000000  0.000000 -0.000000 -0.000000
  8C   1px        0.000000  0.000104 -0.000000 -0.000136  0.000000 -0.000000
  8C   1py        0.000102 -0.000000 -0.000070  0.000000 -0.000040  0.000021
  8C   2pz        0.000000  0.000000 -0.000000  0.000000 -0.000000  0.000000
  8C   2px       -0.000000 -0.002352 -0.000000 -0.000764 -0.000000  0.000000
  8C   2py       -0.000721  0.000000  0.000896 -0.000000 -0.002122  0.004361
  8C   1dz2      -0.000111  0.000000  0.000295 -0.000000 -0.000401  0.000395
  8C   1dxz      -0.000000  0.000000  0.000000 -0.000000 -0.000000  0.000000
  8C   1dyz       0.000000 -0.000000 -0.000000 -0.000000  0.000000 -0.000000
  8C   1dx2y2    -0.000048  0.000000 -0.000072  0.000000 -0.000053  0.000026
  8C   1dxy       0.000000  0.000099 -0.000000 -0.000113  0.000000 -0.000000
  9C   1s        -0.486233 -0.499601  0.475931  0.499351 -0.114232  0.150988
  9C   2s        -0.004149 -0.004645  0.004916  0.004990 -0.001458  0.001764
  9C   3s         0.005606  0.006554 -0.010168 -0.008695  0.003352 -0.004647
  9C   1pz        0.000000  0.000000 -0.000000 -0.000000 -0.000000 -0.000000
  9C   1px       -0.000040  0.000057  0.000002 -0.000019  0.000112 -0.000138
  9C   1py       -0.000032 -0.000007  0.000128  0.000136  0.000040  0.000016
  9C   2pz       -0.000000 -0.000000  0.000000 -0.000000  0.000000 -0.000000
  9C   2px        0.000194 -0.000354 -0.001477 -0.000007 -0.001918  0.006381
  9C   2py       -0.000877 -0.001114 -0.004548 -0.003879 -0.000295  0.000853
  9C   1dz2       0.000039  0.000003 -0.000244 -0.000302  0.000188 -0.000409
  9C   1dxz       0.000000  0.000000 -0.000000 -0.000000  0.000000 -0.000000
  9C   1dyz       0.000000 -0.000000  0.000000  0.000000  0.000000  0.000000
  9C   1dx2y2    -0.000135 -0.000111  0.000096  0.000005 -0.000071 -0.000068
  9C   1dxy       0.000006 -0.000001  0.000033  0.000026 -0.000050  0.000028
 10C   1s        -0.032203 -0.033934 -0.036227 -0.039818 -0.015629 -0.021432
 10C   2s         0.000205  0.000032 -0.000012 -0.000213 -0.000257 -0.000462
 10C   3s        -0.001270 -0.001209 -0.001804  0.000017  0.001049  0.004549
 10C   1pz        0.000000  0.000000  0.000000 -0.000000  0.000000  0.000000
 10C   1px       -0.000053 -0.000001 -0.000021 -0.000044 -0.000046 -0.000085
 10C   1py       -0.000037 -0.000047 -0.000016 -0.000025 -0.000017 -0.000036
 10C   2pz       -0.000000 -0.000000  0.000000  0.000000 -0.000000 -0.000000
 10C   2px        0.001367  0.000620 -0.000481 -0.000454 -0.000037  0.000146
 10C   2py        0.000291  0.000398  0.001683  0.000782 -0.000424 -0.002071
 10C   1dz2      -0.000071 -0.000099 -0.000134 -0.000188 -0.000101 -0.000172
 10C   1dxz      -0.000000 -0.000000 -0.000000 -0.000000 -0.000000 -0.000000
 10C   1dyz       0.000000 -0.000000 -0.000000 -0.000000 -0.000000  0.000000
 10C   1dx2y2    -0.000022 -0.000008  0.000018  0.000045  0.000002  0.000030
 10C   1dxy       0.000076  0.000086  0.000077  0.000067  0.000030  0.000025
 11C   1s        -0.001735 -0.001932 -0.002940 -0.003322 -0.001761 -0.002392
 11C   2s         0.000251  0.000111 -0.000156 -0.000070 -0.000048  0.000150
 11C   3s        -0.000929 -0.000174  0.001970  0.000611 -0.000188 -0.002792
 11C   1pz        0.000000  0.000000 -0.000000 -0.000000 -0.000000 -0.000000
 11C   1px       -0.000048 -0.000054 -0.000017  0.000013  0.000029  0.000054
 11C   1py        0.000010  0.000021  0.000011 -0.000001 -0.000030 -0.000016
 11C   2pz       -0.000000  0.000000  0.000000  0.000000 -0.000000 -0.000000
 11C   2px        0.000219 -0.000008 -0.000793 -0.000191  0.000044  0.001333
 11C   2py       -0.000357 -0.000151 -0.000283  0.000005 -0.000020  0.000373
 11C   1dz2       0.000051  0.000030 -0.000005  0.000029  0.000000  0.000076
 11C   1dxz       0.000000  0.000000 -0.000000  0.000000 -0.000000  0.000000
 11C   1dyz      -0.000000 -0.000000  0.000000 -0.000000 -0.000000 -0.000000
 11C   1dx2y2    -0.000017 -0.000010 -0.000033 -0.000020  0.000003  0.000026
 11C   1dxy      -0.000008 -0.000011 -0.000013  0.000011  0.000008  0.000042
 12C   1s        -0.001735 -0.001932  0.002940  0.003322 -0.001762  0.002391
 12C   2s         0.000251  0.000111  0.000156  0.000070 -0.000048 -0.000150
 12C   3s        -0.000929 -0.000174 -0.001970 -0.000611 -0.000189  0.002792
 12C   1pz        0.000000  0.000000 -0.000000 -0.000000 -0.000000  0.000000
 12C   1px       -0.000048 -0.000054  0.000017 -0.000013  0.000029 -0.000054
 12C   1py       -0.000010 -0.000021  0.000011 -0.000001  0.000030 -0.000016
 12C   2pz       -0.000000 -0.000000 -0.000000  0.000000  0.000000  0.000000
 12C   2px        0.000219 -0.000008  0.000793  0.000191  0.000044 -0.001333
 12C   2py        0.000357  0.000151 -0.000283  0.000005  0.000020  0.000373
 12C   1dz2       0.000051  0.000030  0.000005 -0.000029  0.000000 -0.000076
 12C   1dxz       0.000000  0.000000 -0.000000 -0.000000 -0.000000 -0.000000
 12C   1dyz      -0.000000 -0.000000 -0.000000  0.000000  0.000000  0.000000
 12C   1dx2y2    -0.000017 -0.000010  0.000033  0.000020  0.000003 -0.000026
 12C   1dxy       0.000008  0.000011 -0.000013  0.000011 -0.000008  0.000042
 13C   1s        -0.032203 -0.033935  0.036226  0.039817 -0.015636  0.021427
 13C   2s         0.000205  0.000032  0.000012  0.000213 -0.000257  0.000462
 13C   3s        -0.001270 -0.001209  0.001804 -0.000017  0.001051 -0.004549
 13C   1pz        0.000000 -0.000000 -0.000000 -0.000000  0.000000 -0.000000
 13C   1px       -0.000053 -0.000001  0.000021  0.000044 -0.000046  0.000085
 13C   1py        0.000037  0.000047 -0.000016 -0.000025  0.000017 -0.000036
 13C   2pz       -0.000000 -0.000000  0.000000 -0.000000  0.000000 -0.000000
 13C   2px        0.001367  0.000620  0.000481  0.000454 -0.000037 -0.000146
 13C   2py       -0.000291 -0.000398  0.001683  0.000782  0.000424 -0.002071
 13C   1dz2      -0.000071 -0.000099  0.000134  0.000188 -0.000101  0.000172
 13C   1dxz      -0.000000 -0.000000  0.000000  0.000000 -0.000000  0.000000
 13C   1dyz       0.000000  0.000000 -0.000000 -0.000000  0.000000 -0.000000
 13C   1dx2y2    -0.000022 -0.000008 -0.000018 -0.000045  0.000002 -0.000030
 13C   1dxy      -0.000076 -0.000086  0.000077  0.000067 -0.000030  0.000025
 14H   1s         0.000114 -0.000056  0.000021  0.000003  0.000006 -0.000032
 14H   2s        -0.000096  0.000030  0.000152 -0.000027  0.000013 -0.000263
 14H   1pz       -0.000000 -0.000000 -0.000000 -0.000000 -0.000000  0.000000
 14H   1px        0.000003  0.000002 -0.000014 -0.000000  0.000004  0.000035
 14H   1py        0.000004  0.000006 -0.000000  0.000006  0.000005 -0.000005
 15H   1s         0.000028  0.000041 -0.000201  0.000161 -0.000052  0.000012
 15H   2s        -0.000157  0.000085 -0.000361  0.000234  0.000048  0.000407
 15H   1pz        0.000000  0.000000 -0.000000  0.000000 -0.000000  0.000000
 15H   1px        0.000049 -0.000022  0.000013  0.000000 -0.000017 -0.000008
 15H   1py        0.000047 -0.000037  0.000007 -0.000030  0.000031  0.000066
 16H   1s         0.000028  0.000041  0.000201 -0.000161 -0.000052 -0.000012
 16H   2s        -0.000157  0.000085  0.000361 -0.000234  0.000048 -0.000407
 16H   1pz        0.000000 -0.000000  0.000000 -0.000000  0.000000 -0.000000
 16H   1px        0.000049 -0.000022 -0.000013 -0.000000 -0.000017  0.000008
 16H   1py       -0.000047  0.000037  0.000007 -0.000030 -0.000031  0.000066
 17H   1s         0.000114 -0.000056 -0.000021 -0.000003  0.000006  0.000032
 17H   2s        -0.000096  0.000030 -0.000152  0.000027  0.000013  0.000263
 17H   1pz        0.000000  0.000000  0.000000  0.000000 -0.000000 -0.000000
 17H   1px        0.000003  0.000002  0.000014  0.000000  0.000004 -0.000035
 17H   1py       -0.000004 -0.000006 -0.000000  0.000006 -0.000005 -0.000005
 18H   1s         0.000005 -0.000000 -0.000278  0.000000 -0.000567 -0.000511
 18H   2s        -0.000334  0.000000 -0.000487  0.000000  0.000647  0.000127
 18H   1pz        0.000000 -0.000000 -0.000000 -0.000000 -0.000000 -0.000000
 18H   1px        0.000000  0.000069  0.000000 -0.000004  0.000000  0.000000
 18H   1py        0.000037 -0.000000  0.000004  0.000000  0.000360  0.000321
 19H   1s         0.000005 -0.000000  0.000278 -0.000000 -0.000567  0.000511
 19H   2s        -0.000334  0.000000  0.000487 -0.000000  0.000647 -0.000126
 19H   1pz       -0.000000  0.000000  0.000000 -0.000000 -0.000000  0.000000
 19H   1px        0.000000  0.000069  0.000000  0.000004  0.000000 -0.000000
 19H   1py       -0.000037  0.000000  0.000004  0.000000 -0.000361  0.000321
 20H   1s         0.000028 -0.000041 -0.000201 -0.000161 -0.000052  0.000012
 20H   2s        -0.000157 -0.000085 -0.000361 -0.000234  0.000048  0.000407
 20H   1pz        0.000000  0.000000  0.000000 -0.000000  0.000000  0.000000
 20H   1px       -0.000049 -0.000022 -0.000013  0.000000  0.000017  0.000008
 20H   1py        0.000047  0.000037  0.000007  0.000030  0.000031  0.000066
 21H   1s         0.000114  0.000056  0.000021 -0.000003  0.000006 -0.000032
 21H   2s        -0.000096 -0.000030  0.000152  0.000027  0.000013 -0.000263
 21H   1pz       -0.000000 -0.000000 -0.000000  0.000000  0.000000  0.000000
 21H   1px       -0.000003  0.000002  0.000014 -0.000000 -0.000004 -0.000035
 21H   1py        0.000004 -0.000006 -0.000000 -0.000006  0.000005 -0.000005
 22H   1s         0.000114  0.000056 -0.000021  0.000003  0.000006  0.000032
 22H   2s        -0.000096 -0.000030 -0.000152 -0.000027  0.000013  0.000263
 22H   1pz        0.000000  0.000000 -0.000000 -0.000000 -0.000000 -0.000000
 22H   1px       -0.000003  0.000002 -0.000014  0.000000 -0.000004  0.000035
 22H   1py       -0.000004  0.000006 -0.000000 -0.000006 -0.000005 -0.000005
 23H   1s         0.000028 -0.000041  0.000201  0.000161 -0.000052 -0.000012
 23H   2s        -0.000157 -0.000085  0.000361  0.000234  0.000048 -0.000407
 23H   1pz       -0.000000 -0.000000  0.000000  0.000000 -0.000000  0.000000
 23H   1px       -0.000049 -0.000022  0.000013 -0.000000  0.000017 -0.000008
 23H   1py       -0.000047 -0.000037  0.000007  0.000030 -0.000031  0.000066
                      6         7         8         9        10        11   
                 -11.24239 -11.24239 -11.24226 -11.24226 -11.24083 -11.24083
                   2.00000   2.00000   2.00000   2.00000   2.00000   2.00000
                  --------  --------  --------  --------  --------  --------
  0C   1s         0.240535  0.238368 -0.152071  0.150872  0.447851 -0.431320
  0C   2s         0.001713  0.001619 -0.001057  0.000994  0.003978 -0.003815
  0C   3s        -0.001299 -0.000770 -0.000043  0.000858 -0.004932  0.004801
  0C   1pz       -0.000000 -0.000000  0.000000  0.000000  0.000000 -0.000000
  0C   1px       -0.000071 -0.000059  0.000047 -0.000038 -0.000023  0.000030
  0C   1py       -0.000010 -0.000001  0.000035 -0.000034  0.000054 -0.000052
  0C   2pz        0.000000  0.000000 -0.000000  0.000000 -0.000000  0.000000
  0C   2px        0.000263  0.000396 -0.000893  0.001388 -0.000864  0.000828
  0C   2py       -0.000242 -0.000078 -0.000114  0.000312 -0.000339  0.000351
  0C   1dz2       0.000063  0.000051 -0.000043  0.000028 -0.000171  0.000169
  0C   1dxz      -0.000000 -0.000000  0.000000 -0.000000  0.000000 -0.000000
  0C   1dyz      -0.000000 -0.000000 -0.000000 -0.000000 -0.000000  0.000000
  0C   1dx2y2     0.000014  0.000017  0.000008 -0.000012  0.000131 -0.000127
  0C   1dxy      -0.000056 -0.000049 -0.000032  0.000038 -0.000018  0.000018
  1C   1s         0.440586  0.436256 -0.477708  0.473552 -0.243814  0.234934
  1C   2s         0.003778  0.003667 -0.004438  0.004457 -0.002546  0.002490
  1C   3s        -0.004576 -0.004478  0.007092 -0.008538  0.004194 -0.004162
  1C   1pz       -0.000000 -0.000000  0.000000 -0.000000  0.000000 -0.000000
  1C   1px        0.000060  0.000037 -0.000076  0.000053  0.000025 -0.000023
  1C   1py        0.000075  0.000063 -0.000038  0.000032  0.000003 -0.000010
  1C   2pz       -0.000000 -0.000000  0.000000 -0.000000 -0.000000  0.000000
  1C   2px       -0.000881 -0.000318  0.000812 -0.000433 -0.000702  0.000717
  1C   2py        0.000618  0.000673 -0.001191  0.001858 -0.000942  0.000998
  1C   1dz2      -0.000200 -0.000215  0.000189 -0.000193  0.000259 -0.000244
  1C   1dxz       0.000000  0.000000 -0.000000  0.000000 -0.000000  0.000000
  1C   1dyz      -0.000000 -0.000000  0.000000 -0.000000  0.000000 -0.000000
  1C   1dx2y2    -0.000031 -0.000029  0.000049 -0.000038  0.000034 -0.000028
  1C   1dxy       0.000063  0.000043 -0.000020  0.000008 -0.000012  0.000011
  2C   1s        -0.031116 -0.031839  0.039280 -0.040114  0.014892 -0.014646
  2C   2s        -0.000478 -0.000598  0.000427 -0.000267  0.000164 -0.000092
  2C   3s         0.000961  0.000981 -0.001531 -0.001294 -0.000698  0.000203
  2C   1pz        0.000000  0.000000 -0.000000  0.000000  0.000000 -0.000000
  2C   1px        0.000094  0.000060 -0.000078  0.000035 -0.000010  0.000009
  2C   1py       -0.000005 -0.000032  0.000000 -0.000021  0.000022 -0.000030
  2C   2pz       -0.000000 -0.000000  0.000000 -0.000000  0.000000  0.000000
  2C   2px       -0.001455 -0.001206  0.002192 -0.004852  0.000144 -0.000415
  2C   2py       -0.000095 -0.000098 -0.001243  0.001211 -0.000033 -0.000111
  2C   1dz2       0.000104  0.000110 -0.000237  0.000315 -0.000110  0.000125
  2C   1dxz      -0.000000 -0.000000  0.000000 -0.000000  0.000000 -0.000000
  2C   1dyz       0.000000  0.000000 -0.000000  0.000000 -0.000000  0.000000
  2C   1dx2y2    -0.000028 -0.000036 -0.000043  0.000044  0.000059 -0.000068
  2C   1dxy       0.000022  0.000027 -0.000064  0.000012 -0.000050  0.000033
  3C   1s        -0.031119 -0.031843 -0.039277  0.040111  0.014892 -0.014646
  3C   2s        -0.000478 -0.000598 -0.000427  0.000267  0.000164 -0.000092
[...]
 13C   1dxy      -0.582716 -0.088690  0.258339 -0.304750  0.018803 -0.171859
 14H   1s        -0.763669 -0.683373 -0.513252 -0.780197 -1.372943  1.201488
 14H   2s         0.520849  0.231757  0.174146  0.384780  0.684651 -0.660428
 14H   1pz       -0.000000 -0.000000 -0.000000 -0.000000 -0.000000  0.000000
 14H   1px       -0.293753 -0.166421 -0.140258 -0.273459 -0.426523  0.376609
 14H   1py        0.278968  0.237987  0.164191  0.110098  0.231740 -0.221080
 15H   1s         0.049483  1.303719  1.010768  0.506306  1.205604 -1.094428
 15H   2s        -0.192651 -0.454582 -0.436791 -0.321304 -0.612311  0.656360
 15H   1pz        0.000000  0.000000  0.000000  0.000000  0.000000 -0.000000
 15H   1px        0.318115 -0.046161 -0.086446 -0.056981 -0.002906 -0.053282
 15H   1py       -0.042798 -0.537140 -0.404597 -0.209419 -0.443130  0.407672
 16H   1s        -0.049480  1.303719  1.010768 -0.506305 -1.205603  1.094427
 16H   2s         0.192650 -0.454582 -0.436791  0.321303  0.612311 -0.656360
 16H   1pz       -0.000000 -0.000000 -0.000000  0.000000  0.000000 -0.000000
 16H   1px       -0.318115 -0.046161 -0.086446  0.056981  0.002905  0.053282
 16H   1py       -0.042796  0.537140  0.404597 -0.209419 -0.443129  0.407672
 17H   1s         0.763667 -0.683374 -0.513253  0.780197  1.372944 -1.201489
 17H   2s        -0.520849  0.231758  0.174146 -0.384780 -0.684651  0.660428
 17H   1pz        0.000000 -0.000000 -0.000000  0.000000  0.000000 -0.000000
 17H   1px        0.293752 -0.166421 -0.140259  0.273459  0.426523 -0.376609
 17H   1py        0.278968 -0.237987 -0.164191  0.110098  0.231740 -0.221080
 18H   1s        -0.000000  0.000002  1.383102  1.474142 -0.000003  0.889811
 18H   2s        -0.000000 -0.000001 -0.578331 -0.780566  0.000002 -0.600513
 18H   1pz       -0.000000  0.000000  0.000000  0.000000  0.000000  0.000000
 18H   1px       -0.389367  0.273523 -0.000000  0.000000  0.093395  0.000000
 18H   1py        0.000000 -0.000001 -0.577316 -0.586070  0.000001 -0.336382
 19H   1s        -0.000001  0.000001  1.383102 -1.474140  0.000004 -0.889811
 19H   2s         0.000000 -0.000000 -0.578331  0.780565 -0.000002  0.600512
 19H   1pz       -0.000000 -0.000000  0.000000 -0.000000  0.000000 -0.000000
 19H   1px        0.389367  0.273522 -0.000000 -0.000000 -0.093395 -0.000000
 19H   1py       -0.000000  0.000000  0.577316 -0.586070  0.000001 -0.336382
 20H   1s        -0.049481 -1.303717  1.010771  0.506305 -1.205596 -1.094436
 20H   2s         0.192651  0.454581 -0.436792 -0.321303  0.612306  0.656365
 20H   1pz       -0.000000  0.000000 -0.000000 -0.000000  0.000000  0.000000
 20H   1px        0.318115 -0.046161  0.086446  0.056981 -0.002906  0.053282
 20H   1py        0.042797  0.537139 -0.404598 -0.209419  0.443127  0.407676
 21H   1s         0.763669  0.683372 -0.513253 -0.780197  1.372936  1.201498
 21H   2s        -0.520849 -0.231757  0.174146  0.384779 -0.684646 -0.660432
 21H   1pz        0.000000  0.000000 -0.000000 -0.000000  0.000000  0.000000
 21H   1px       -0.293753 -0.166420  0.140259  0.273459 -0.426520 -0.376612
 21H   1py       -0.278968 -0.237986  0.164191  0.110098 -0.231738 -0.221082
 22H   1s        -0.763668  0.683373 -0.513254  0.780196 -1.372935 -1.201498
 22H   2s         0.520849 -0.231758  0.174147 -0.384779  0.684646  0.660432
 22H   1pz       -0.000000  0.000000 -0.000000  0.000000 -0.000000 -0.000000
 22H   1px        0.293753 -0.166421  0.140259 -0.273459  0.426520  0.376612
 22H   1py       -0.278968  0.237987 -0.164191  0.110098 -0.231738 -0.221082
 23H   1s         0.049480 -1.303717  1.010771 -0.506305  1.205596  1.094436
 23H   2s        -0.192651  0.454581 -0.436792  0.321303 -0.612306 -0.656365
 23H   1pz        0.000000 -0.000000  0.000000 -0.000000  0.000000  0.000000
 23H   1px       -0.318115 -0.046161  0.086446 -0.056981  0.002906 -0.053282
 23H   1py        0.042797 -0.537140  0.404598 -0.209419  0.443127  0.407676



-------------------------------------------------------------
 Forming the transition densities       ... done in 0.0 sec
-------------------------------------------------------------
Memory for address arrays  		      ... done
Make address arrays			      ... done
Memory for buffers 			      ... done
Setting up spin-function prototypes	      ... (MAXOPEN=4) 0 2 4 6 done
Trivial cases - DOMO's			      ... done (  0.0 MB)
Number of open shells			    ...  0
domo->virtual excitations			... done (  0.0 MB)
domo->somo excitations				... done (  0.0 MB)
somo->virtual excitations			... done (  0.0 MB)
somo->somo excitations				... done (  0.0 MB)
Number of open shells			    ...  2
domo->virtual excitations			... done (  0.0 MB)
domo->somo excitations				... done (  0.0 MB)
somo->virtual excitations			... done (  0.0 MB)
somo->somo excitations				... done (  0.0 MB)
Number of open shells			    ...  4
domo->virtual excitations			... done (  0.0 MB)
domo->somo excitations				... done (  0.0 MB)
somo->virtual excitations			... done (  0.0 MB)
somo->somo excitations				... done (  0.0 MB)
Coupling container construction done

--------------
CASSCF TIMINGS
--------------

Total time                       ...      101.1 sec
Sum of individual times          ...      100.9 sec ( 99.8%)

Calculation of AO operators
   F(Core) operator              ...       16.6 sec ( 16.5%)
   G(Act) operator               ...       12.4 sec ( 12.3%)
Calculation of MO transformed quantities
   J(MO) operators               ...       71.5 sec ( 70.7%)
   AO->MO one electron integrals ...        0.0 sec (  0.0%)
Configuration interaction steps
   CI-setup phase                ...        0.0 sec (  0.0%)
   CI-solution phase             ...        0.2 sec (  0.2%)
   Generation of densities       ...        0.0 sec (  0.0%)
Orbital improvement steps
   Orbital gradient              ...        0.0 sec (  0.0%)
   O(1) converger                ...        0.2 sec (  0.2%)
CPCM steps
   Total CPCM time               ...        0.0 sec (  0.0%)
Properties                       ...        0.0 sec (  0.0%)
   SOC integral calculation      ...        0.0 sec (  0.0%)
   SSC RMEs (incl. integrals)    ...        0.0 sec (  0.0%)
   SOC RMEs                      ...        0.0 sec (  0.0%)

Maximum memory used throughout the entire CASSCF-calculation: 52.7 MB


           ************************************************************
           *        Program running with 8 parallel MPI-processes     *
           *              working on a common directory               *
           ************************************************************

------------------------------------------------------------------------------
                         ORCA PROPERTY INTEGRAL CALCULATIONS
------------------------------------------------------------------------------

GBWName                                   ... orca.gbw
Number of atoms                           ...     24
Number of basis functions                 ...    344
Max core memory                           ...   4096 MB

Dipole integrals                          ... YES
Quadrupole integrals                      ...  NO
Linear momentum integrals                 ...  NO
Angular momentum integrals                ... YES
Higher moments length integrals           ...  NO
Higher moments velocity integrals         ...  NO
Kinetic energy integrals                  ...  NO
GIAO right hand sides                     ...  NO
GIAO dipole derivative integrals          ...  NO
SOC integrals                             ...  NO
EPR diamagnetic integrals (GIAO)          ...  NO
EPR gauge integrals                       ...  NO
Field gradient integrals                  ...  NO (   0 nuclei)
Spin-dipole/Fermi contact integrals       ...  NO (   0 nuclei)
Contact density integrals                 ...  NO (   0 nuclei)
Nucleus-orbit integrals                   ...  NO (   0 nuclei)
Geometric perturbations                   ...  NO (  24 nuclei)

Choice of electric origin   ... Center of mass
Position of electric origin ... (  0.0000, -0.0000,  0.0000) 
Choice of magnetic origin   ... GIAO
Position of magnetic origin ... (  0.0000,  0.0000,  0.0000) 

Calculating integrals                     ... Electric Dipole (Length)     done (  0.0 sec)
Calculating integrals                     ... Angular Momentum  (ElOri)    done (  0.0 sec)

Property integrals calculated in   0.0 sec

Maximum memory used throughout the entire PROPINT-calculation: 20.0 MB


           ************************************************************
           *        Program running with 8 parallel MPI-processes     *
           *              working on a common directory               *
           ************************************************************
-------------------------------------------------------------------------------
                              ORCA-CASSCF
-------------------------------------------------------------------------------

Setting up the integral package     ... done


==========================================
CASSCF UV, CD spectra and dipole moments
==========================================

----------------------------------------------------------------------------------------------------
                     ABSORPTION SPECTRUM VIA TRANSITION ELECTRIC DIPOLE MOMENTS    
----------------------------------------------------------------------------------------------------
     Transition      Energy     Energy  Wavelength fosc(D2)      D2        DX        DY        DZ   
                      (eV)      (cm-1)    (nm)                 (au**2)    (au)      (au)      (au)  
----------------------------------------------------------------------------------------------------
  0-1A  ->  1-1A    4.891453   39452.2   253.5   0.162957264   1.35981  -0.00000  -1.16611  -0.00000
  0-1A  ->  2-1A    5.343428   43097.7   232.0   0.000036348   0.00028  -0.01666   0.00000   0.00000

------------------------------------------------------------------------------------------
                     CD SPECTRUM VIA TRANSITION ELECTRIC DIPOLE MOMENTS    
------------------------------------------------------------------------------------------
     Transition      Energy     Energy  Wavelength    R        MX        MY        MZ   
                      (eV)      (cm-1)    (nm)   (1e40*cgs)   (au)      (au)      (au)  
------------------------------------------------------------------------------------------
  0-1A  ->  1-1A    4.891453   39452.2   253.5   -0.00002   0.00000  -0.00000  -0.00000
  0-1A  ->  2-1A    5.343428   43097.7   232.0   -0.00000  -0.00000   0.00000   0.00000

--------------
CASSCF TIMINGS
--------------

Total time                       ...        0.1 sec
Sum of individual times          ...        0.1 sec ( 92.1%)

Calculation of AO operators
Calculation of MO transformed quantities
Configuration interaction steps
   CI-setup phase                ...        0.1 sec ( 92.1%)
Orbital improvement steps

Maximum memory used throughout the entire CASSCF-calculation: 44.5 MB

-------------------------   --------------------
FINAL SINGLE POINT ENERGY      -535.931814863645
-------------------------   --------------------



           ************************************************************
           *        Program running with 8 parallel MPI-processes     *
           *              working on a common directory               *
           ************************************************************

------------------------------------------------------------------------------
                              ORCA PROPERTY CALCULATIONS
------------------------------------------------------------------------------

GBWName                                 ... orca.gbw
Number of atoms                         ...     24
Number of basis functions               ...    344
Max core memory                         ...   4096 MB

Electric properties:
Dipole moment                           ... YES
Quadrupole moment                       ...  NO
Static polarizability (Dipole/Dipole)   ...  NO
Static polarizability (Dipole/Quad.)    ...  NO
Static polarizability (Quad./Quad.)     ...  NO
Static polarizability (Velocity)        ...  NO
Static hyperpolarizability              ...  NO

Atomic electric properties:
Dipole moment                           ...  NO
Quadrupole moment                       ...  NO
Static polarizability                   ...  NO

Choice of electric origin               ... Center of mass
Position of electric origin             ...     0.000000    -0.000000     0.000000

General magnetic properties:
Magnetizability                         ...  NO

EPR properties:
g-Tensor (aka g-matrix)                 ...  NO
Zero-Field splitting spin-orbit         ...  NO
Zero-field splitting spin-spin          ...  NO
Hyperfine couplings                     ...  NO (   0 nuclei)
Quadrupole couplings                    ...  NO (   0 nuclei)
Contact density                         ...  NO (   0 nuclei)

NMR properties:
Chemical shifts                         ...  NO (   0 nuclei)
Spin-rotation constants                 ...  NO (   0 nuclei)
Spin-spin couplings                     ...  NO (   0 nuclei,    0 pairs)

Choice of magnetic origin               ... GIAO
Position of magnetic origin             ...     0.000000     0.000000     0.000000

Properties with geometric perturbations:
SCF Hessian                             ...  NO
IR spectrum                             ...  NO
VCD spectrum                            ...  NO
X-ray spectroscopy properties:
SCF XES/XAS/RIXS spectra                ...  NO

SCF SOC stabilization energy            ...  NO
Diagonal Born-Oppenheimer correction    ...  NO

-------------
DIPOLE MOMENT
-------------

Method             : CASSCF/ALL STATES AVERAGE
Type of density    : Electron Density
Level              : Unrelaxed density
State              :  -1
Multiplicity       :  -1
Irrep              :   0
Energy             :  -535.9318148636450587 Eh
Basis              : AO
                                X                 Y                 Z
Electronic contribution:      0.000000277      -0.000000139       0.000000859
Nuclear contribution   :     -0.000000204       0.000000161      -0.000001042
                        -----------------------------------------
Total Dipole Moment    :      0.000000073       0.000000022      -0.000000183
                        -----------------------------------------
Magnitude (a.u.)       :      0.000000198
Magnitude (Debye)      :      0.000000504



--------------------
Rotational spectrum 
--------------------
 
Rotational constants in cm-1:             0.071795             0.015152             0.012512 
Rotational constants in MHz :          2152.346410           454.247255           375.086252 

Dipole components along the rotational axes: 
x,y,z [a.u.] :     0.000000    -0.000000    -0.000000 
x,y,z [Debye]:     0.000000    -0.000000    -0.000000 

 

Dipole moment calculation done in   0.0 sec 

Maximum memory used throughout the entire PROP-calculation: 17.2 MB

--------------------------------
SUGGESTED CITATIONS FOR THIS RUN
--------------------------------

Below you find a list of papers that are relevant to this ORCA run
We neither can nor want to force you to cite these papers, but we appreciate if you do
You receive ORCA, which is the product of decades of hard work by many enthusiastic individuals, for free
The only thing we kindly ask in return is that you cite our papers,
We deeply appreciate it, if you show your appreciation for ORCA by not just citing the generic ORCA reference.

Please note that relegating all ORCA citations to the supporting information does *not* help us.
SI sections are not indexed - citations you put there will not count into any citation statistics
But we need these citations in order to attract the funding resources that allow us to do what we are doing

Therefore, if you are a happy ORCA user, please consider citing a few of the papers listed below in the main body of your paper

In addition to the list printed below, the program has created the file orca.bibtex that contains the list in bibtex format
You can import this file easily into all common literature databanks and citation aid programs

It goes without saying that in many instances, there are alternative algorithms to achieve similar
results as the ones you have gotten from ORCA. It is, of course, also the case that in some instances
ORCA just re-implements algorithms worked out by others. We are fully aware of that and we are also
fully appreciative of our colleagues work. Hence this citation list should not be read as indicating
that the listed papers, which are focused on our own work, are the only ones worth citing. It simply
meant to make it easier for users to cite ORCA specific papers. It is not a substitute for doing your
own literature research and citing the relevant literature in a scientifically appropriate manner.

List of essential papers. We consider these as the minimum necessary citations

  1. Neese, F.
     Software update: the ORCA program system, version 6.0
     WIRES Comput. Molec. Sci. 2025 15(1), e70019
     doi.org/10.1002/wcms.70019

List of papers to cite with high priority. The work reported in these papers was absolutely
necessary for this run to complete.
Our perspective: the developers of density functionals and basis sets usually get cited in chemistry papers
Good! But without the algorithms to do something with them, the functionals or basis sets would not do anything.
Hence, in our opinion, the algorithm design and method developments papers are equally worthy of getting cited

  1. Kollmar, C.; Sivalingam, K.; Helmich-Paris, B.; Angeli, C.; Neese, F.
     A perturbation-based super-CI approach for the orbital optimization of a CASSCF wave function
     J. Comput. Chem. 2019 40 , 1463-1470
     doi.org/10.1002/jcc.25801
  2. Neese, F.
     The SHARK Integral Generation and Digestion System
     J. Comp. Chem. 2022 44(3), 381
     doi.org/10.1002/jcc.26942
  3. Ugandi, M.; Roemelt, M.
     A recursive formulation of one-electron coupling coefficients for spin-adapted configuration interaction calculations featuring many unpaired electrons
     Int. J. Quantum Chem. 2023 123 , e27045
     doi.org/10.1002/qua.27045

List of suggested additional citations. These are papers that are important in the 'surrounding' of 
of this run, or papers that preceded the highly important papers. If you like your results we are grateful for a citation.

  1. Neese, F.
     The ORCA program system
     WIRES Comput. Molec. Sci. 2012 2(1), 73-78
     doi.org/10.1002/wcms.81
  2. Neese, F.
     Software update: the ORCA program system, version 4.0
     WIRES Comput. Molec. Sci. 2018 8(1), 1-6
     doi.org/10.1002/wcms.1327
  3. Neese, F.; Wennmohs, F.; Becker, U.; Riplinger, C.
     The ORCA quantum chemistry program package
     J. Chem. Phys. 2020 152(22), 224108
     doi.org/10.1063/5.0004608
  4. Neese, F.
     Software update: The ORCA program system—Version 5.0
     WIRES Comput. Molec. Sci. 2022 12(1), e1606
     doi.org/10.1002/wcms.1606

List of optional additional citations

  1. Neese, F.
     Approximate second-order SCF convergence for spin unrestricted wavefunctions
     Chem. Phys. Lett. 2000 325(1-3), 93-98
     doi.org/10.1016/s0009-2614(00)00662-x

Timings for individual modules:

Sum of individual times          ...      104.941 sec (=   1.749 min)
Startup calculation              ...        2.097 sec (=   0.035 min)   2.0 %
SCF iterations                   ...        0.389 sec (=   0.006 min)   0.4 %
CASSCF iterations                ...      101.753 sec (=   1.696 min)  97.0 %
Property integrals               ...        0.352 sec (=   0.006 min)   0.3 %
Property calculations            ...        0.350 sec (=   0.006 min)   0.3 %
                             ****ORCA TERMINATED NORMALLY****
TOTAL RUN TIME: 0 days 0 hours 1 minutes 45 seconds 280 msec
