
                                 *****************
                                 * O   R   C   A *
                                 *****************

                                            #,                                       
                                            ###                                      
                                            ####                                     
                                            #####                                    
                                            ######                                   
                                           ########,                                 
                                     ,,################,,,,,                         
                               ,,#################################,,                 
                          ,,##########################################,,             
                       ,#########################################, ''#####,          
                    ,#############################################,,   '####,        
                  ,##################################################,,,,####,       
                ,###########''''           ''''###############################       
              ,#####''   ,,,,##########,,,,          '''####'''          '####       
            ,##' ,,,,###########################,,,                        '##       
           ' ,,###''''                  '''############,,,                           
         ,,##''                                '''############,,,,        ,,,,,,###''
      ,#''                                            '''#######################'''  
     '                                                          ''''####''''         
             ,#######,   #######,   ,#######,      ##                                
            ,#'     '#,  ##    ##  ,#'     '#,    #''#        ,####,   ,####,        
            ##       ##  ##   ,#'  ##            #'  '#       #'       #'  '#        
            ##       ##  #######   ##           ,######,      #####,   #    #        
            '#,     ,#'  ##    ##  '#,     ,#' ,#      #,     #,   #   #,  ,#        
             '#######'   ##     ##  '#######'  #'      '#     '####' # '####'        



                #########################################################
                #                        -***-                          #
                #          Department of theory and spectroscopy        #
                #                                                       #
                #                      Frank Neese                      #
                #                                                       #
                #     Directorship, Architecture, Infrastructure        #
                #                    SHARK, DRIVERS                     #
                #        Core code/Algorithms in most modules           #
                #                                                       #
                #        Max Planck Institute fuer Kohlenforschung      #
                #                Kaiser Wilhelm Platz 1                 #
                #                 D-45470 Muelheim/Ruhr                 #
                #                      Germany                          #
                #                                                       #
                #                  All rights reserved                  #
                #                        -***-                          #
                #########################################################


                         Program Version 6.0.1  -  RELEASE   -


 With contributions from (in alphabetic order):
[Max-Planck-Institut fuer Kohlenforschung]                               
  Daniel Aravena         : Magnetic Suceptibility                        
  Michael Atanasov       : Ab Initio Ligand Field Theory (pilot matlab implementation)
  Alexander A. Auer      : GIAO ZORA, VPT2 properties, NMR spectrum      
  Ute Becker             : All parallelization in ORCA, NUMFREQ, NUMCALC 
  Giovanni Bistoni       : ED, misc. LED, open-shell LED, HFLD           
  Martin Brehm           : Molecular dynamics                            
  Dmytro Bykov           : pre 5.0 version of the SCF Hessian            
  Marcos Casanova-Páez   : Triplet and SCS-CIS(D). UHF-(DLPNO)-IP/EA/STEOM-CCSD. UHF-CVS-IP/STEOM-CCSD   
  Vijay G. Chilkuri      : MRCI spin determinant printing, contributions to CSF-ICE 
  Pauline Colinet        : FMM embedding                                 
  Dipayan Datta          : RHF DLPNO-CCSD density                        
  Achintya Kumar Dutta   : EOM-CC, STEOM-CC                              
  Nicolas Foglia         : Exact transition moments, OPA infrastructure, MCD improvements    
  Dmitry Ganyushin       : Spin-Orbit,Spin-Spin,Magnetic field MRCI      
  Miquel Garcia-Rates    : C-PCM and meta-GGA Hessian, CCSD/C-PCM, Gaussian charge scheme 
  Tiago L. C. Gouveia    : GS-ROHF, GS-ROCIS                             
  Yang Guo               : DLPNO-NEVPT2, F12-NEVPT2, CIM, IAO-localization        
  Andreas Hansen         : Spin unrestricted coupled pair/coupled cluster methods 
  Ingolf Harden          : AUTO-CI MPn and infrastructure                
  Benjamin Helmich-Paris : MC-RPA, TRAH-(SCF,CASSCF), AVAS, COSX integrals, SCF dyn. polar. 
  Lee Huntington         : MR-EOM, pCC                                   
  Robert Izsak           : Overlap fitted RIJCOSX, COSX-SCS-MP3, EOM     
  Riya Kayal             : Wick's Theorem for AUTO-CI, AUTO-CI UHF-CCSDT 
  Emily Kempfer          : AUTO-CI, RHF CISDT and CCSDT                  
  Christian Kollmar      : KDIIS, OOCD, Brueckner-CCSD(T), CCSD density, CASPT2, CASPT2-K, improved NEVPT2 
  Axel Koslowski         : Symmetry handling                             
  Simone Kossmann        : meta-GGA functionals, TD-DFT gradient, OOMP2, (MP2 Hessian; deprecated post 5.0) 
  Lucas Lang             : DCDCAS                                        
  Marvin Lechner         : AUTO-CI (C++ implementation), FIC-MRCC        
  Spencer Leger          : CASSCF response                               
  Dagmar Lenk            : GEPOL surface, SMD, ORCA-2-JSON               
  Dimitrios Liakos       : Extrapolation schemes; Compound Job, initial MDCI parallelization 
  Dimitrios Manganas     : Further ROCIS development; embedding schemes. LFT, Crystal Embedding 
  Dimitrios Pantazis     : SARC Basis sets                               
  Anastasios Papadopoulos: AUTO-CI, single reference methods and gradients 
  Taras Petrenko         : pre 6.0 DFT Hessian and TD-DFT gradient, (ASA, deprecated), ECA, 1-Electron XAS/XES, NRVS 
  Peter Pinski           : DLPNO-MP2, DLPNO-MP2 Gradient                 
  Christoph Reimann      : Effective Core Potentials                     
  Marius Retegan         : Local ZFS, SOC                                
  Christoph Riplinger    : Optimizer, TS searches, QM/MM, DLPNO-CCSD(T), (RO)-DLPNO pert. Triples 
  Michael Roemelt        : Original ROCIS implementation                 
  Masaaki Saitow         : Open-shell DLPNO-CCSD energy and density      
  Barbara Sandhoefer     : DKH picture change effects                    
  Kantharuban Sivalingam : CASSCF convergence/infrastructure, NEVPT2 and variants, FIC-MRCI 
  Bernardo de Souza      : ESD, SOC TD-DFT                               
  Georgi L. Stoychev     : AutoAux, RI-MP2 NMR, DLPNO-MP2 response, X2C  
  Van Anh Tran           : RI-MP2 g-tensors                              
  Willem Van den Heuvel  : Paramagnetic NMR                              
  Zikuan Wang            : NOTCH, Electric field optimization            
  Frank Wennmohs         : Technical directorship and infrastructure     
  Hang Xu                : AUTO-CI-Response properties                   
                                                                         
[FACCTs GmbH]                                                            
  Markus Bursch, Miquel Garcia-Rates, Christoph Riplinger, Bernardo de Souza, Georgi L. Stoychev 
                                                                 
  APM, Basis sets (HGBS, AHGBS, def-TZVP (Ac-Lr), def2-XVPD (La-Lu)), CI-OPT, improved COSX, DLPNO-Multilevel,           
  DOCKER, DRACO, updates on ESD, GOAT, IRC, LR-CPCM, MBIS, meta-GGA TD-DFT gradient, ML-optimized integration grids, 
  MM, NACMEs, nearIR, NEB, NEB-TS, NL-DFT gradient (VV10), 2- and 3-layer-ONIOM, interface openCOSMO-RS, QMMM,   
  Crystal-QMMM, SF, symmetry and pop. for TD-DFT, r2SCAN hybrids, SOLVATOR                                   
                                                                         
[Other institutions]                                                     
  V. Asgeirsson          : NEB                                           
  Christoph Bannwarth    : sTDA-DFT, sTD-DFT, PBEh-3c, B97-3c, D3        
  Sebastian Ehlert       : rSCAN, r2SCAN, r2SCAN-3c, D4, dhf basis sets  
  Marvin Friede          : D4 for Fr, Ra, Ac-Lr                          
  Lars Goerigk           : TD-DFT with DH, B97 family of functionals     
  Stefan Grimme          : VdW corrections, initial TS optimization, DFT functionals, gCP, sTDA/sTD-DF 
  Waldemar Hujo          : DFT-NL                                        
  H. Jonsson             : NEB                                           
  Holger Kruse           : gCP                                           
  Marcel Mueller         : wB97X-3c, vDZP basis set                      
  Hagen Neugebauer       : wr2SCAN                                       
  Tobias Risthaus        : range-separated hybrid DFT                    
  Lukas Wittmann         : regularized MP2, r2SCAN double-hybrids, wr2SCAN        
                                                                         
We gratefully acknowledge several colleagues who have allowed us to      
interface, adapt or use parts of their codes:                            
  Ed Valeev, F. Pavosevic, A. Kumar             : LibInt (2-el integral package), F12 methods 
  Garnet Chan, S. Sharma, J. Yang, R. Olivares  : DMRG                   
  Ulf Ekstrom                                   : XCFun DFT Library      
  Mihaly Kallay                                 : mrcc  (arbitrary order and MRCC methods)
  Frank Weinhold                                : gennbo (NPA and NBO analysis)           
  Simon Mueller                                 : openCOSMO-RS                            
  Christopher J. Cramer and Donald G. Truhlar   : smd solvation model                     
  S Lehtola, MJT Oliveira, MAL Marques          : LibXC Library                           
  Liviu Ungur et al                             : ANISO software                          


 Your calculation uses the libint2 library for the computation of 2-el integrals
 For citations please refer to: http://libint.valeyev.net

 Your ORCA version has been built with support for libXC version: 6.2.2
 For citations please refer to: https://libxc.gitlab.io

 This ORCA versions uses:
   CBLAS   interface :  Fast vector & matrix operations
   LAPACKE interface :  Fast linear algebra routines
   SCALAPACK package :  Parallel linear algebra routines
   Shared memory     :  Shared parallel matrices




***************************************
The coordinates will be read from file: geom.xyz
***************************************


================================================================================

----- Orbital basis set information -----
Your calculation utilizes the basis: cc-pVTZ 
       H, B-Ne : Obtained from the ccRepo (grant-hill.group.shef.ac.uk/ccrepo) Feb. 2017
                 T. H. Dunning, Jr., J. Chem. Phys. 90, 1007 (1989)
            He : Obtained from the ccRepo (grant-hill.group.shef.ac.uk/ccrepo) Feb. 2017
                 D. E. Woon, T. H. Dunning, Jr., J. Chem. Phys. 100, 2975 (1994)
  Li-Be, Na-Mg : Obtained from the ccRepo (grant-hill.group.shef.ac.uk/ccrepo) Feb. 2017
                 B. P. Prascher, D. E. Woon, K. A. Peterson, T. H. Dunning, Jr., A. K. Wilson, Theor. Chem. Acc. 128, 69 (2011)
         Al-Ar : Obtained from the ccRepo (grant-hill.group.shef.ac.uk/ccrepo) Feb. 2017
                 D. E. Woon, T. H. Dunning, Jr., J. Chem. Phys. 98, 1358 (1993)
            Ca : Obtained from the Peterson Research Group Website (tyr0.chem.wsu.edu/~kipeters) Feb. 2017
                 J. Koput, K. A. Peterson, J. Phys. Chem. 106, 9595 (2002)
         Sc-Zn : Obtained from the ccRepo (grant-hill.group.shef.ac.uk/ccrepo) Feb. 2017
                 N. B. Balabanov, K. A. Peterson, J. Chem. Phys. 123, 064107 (2005)
                 N. B. Balabanov, K. A. Peterson, J. Chem. Phys. 125, 074110 (2006)
         Ga-Kr : Obtained from the ccRepo (grant-hill.group.shef.ac.uk/ccrepo) Feb. 2017
                 A. K. Wilson, D. E. Woon, K. A. Peterson, T. H. Dunning, Jr., J. Chem. Phys. 110, 7667 (1999)
             Y : Obtained from the ccRepo (grant-hill.group.shef.ac.uk/ccrepo) Feb. 2017
                 K. A. Peterson, D. Figgen, M. Dolg, H. Stoll, J. Chem. Phys. 126, 124101 (2007)
        Ag, Au : Obtained from the Peterson Research Group Website (tyr0.chem.wsu.edu/~kipeters) Feb. 2017
                 K. A. Peterson, C. Puzzarini, Theor. Chem. Acc. 114, 283 (2005)

================================================================================
                                        WARNINGS
                       Please study these warnings very carefully!
================================================================================

WARNING: Old DensityContainer found on disk!
         Will remove this file - 
         If you want to keep old densities, please start your calculation with a different basename. 


WARNING: The frozen-core approximation for MP2-gradient calculations is turned on by default.

WARNING: Geometry Optimization
  ===> : Switching off AutoStart
         For restart on a previous wavefunction, please use MOREAD

WARNING: Post HF methods need fully converged wavefunctions
  ===> : Setting SCFConvForced true
         You can overwrite this default with %scf ConvForced false 


================================================================================
                                       INPUT FILE
================================================================================
NAME = orca.inp
|  1> ! RHF cc-pvtz tightscf nopop MP2 tightopt PAL8
|  2> * xyzfile 0 1 geom.xyz
|  3> 
|  4>                          ****END OF INPUT****
================================================================================

                       *****************************
                       * Geometry Optimization Run *
                       *****************************

Geometry optimization settings:
Update method            Update   .... BFGS
Choice of coordinates    CoordSys .... (2022) Redundant Internals
Initial Hessian          InHess   .... Almloef's Model
Max. no of cycles        MaxIter  .... 50

Convergence Tolerances:
Energy Change            TolE     ....  1.0000e-06 Eh
Max. Gradient            TolMAXG  ....  1.0000e-04 Eh/bohr
RMS Gradient             TolRMSG  ....  3.0000e-05 Eh/bohr
Max. Displacement        TolMAXD  ....  1.0000e-03 bohr
RMS Displacement         TolRMSD  ....  6.0000e-04 bohr
Strict Convergence                .... False

------------------------------------------------------------------------------
                        ORCA OPTIMIZATION COORDINATE SETUP
------------------------------------------------------------------------------

The optimization will be done in redundant internal coordinates (2022)
Making redundant internal coordinates   ...  (2022 redundants) done
Evaluating the initial hessian          ...  (Almloef) done
Evaluating the coordinates              ...  done
Calculating the B-matrix                .... done
Calculating the G-matrix                .... done
Diagonalizing the G-matrix              .... done
The first mode is                       ....    3
The number of degrees of freedom        ....   12

    -----------------------------------------------------------------
                    Redundant Internal Coordinates


    -----------------------------------------------------------------
         Definition                    Initial Value    Approx d2E/dq
    -----------------------------------------------------------------
      1. B(C   1,C   0)                  1.3261         0.790215   
      2. B(H   2,C   0)                  1.0842         0.367827   
      3. B(H   3,C   1)                  1.0842         0.367827   
      4. B(H   4,C   1)                  1.0842         0.367827   
      5. B(H   5,C   0)                  1.0842         0.367828   
      6. A(H   2,C   0,H   5)          116.4597         0.292789   
      7. A(C   1,C   0,H   5)          121.7702         0.369147   
      8. A(C   1,C   0,H   2)          121.7702         0.369147   
      9. A(C   0,C   1,H   4)          121.7701         0.369147   
     10. A(H   3,C   1,H   4)          116.4597         0.292789   
     11. A(C   0,C   1,H   3)          121.7701         0.369147   
     12. D(H   3,C   1,C   0,H   5)      0.0000         0.045005   
     13. D(H   4,C   1,C   0,H   2)      0.0000         0.045005   
     14. D(H   4,C   1,C   0,H   5)    180.0000         0.045005   
     15. D(H   3,C   1,C   0,H   2)    180.0000         0.045005   
    -----------------------------------------------------------------

Number of atoms                         .... 6
Number of degrees of freedom            .... 15


         *************************************************************
         *                GEOMETRY OPTIMIZATION CYCLE   1            *
         *************************************************************
---------------------------------
CARTESIAN COORDINATES (ANGSTROEM)
---------------------------------
  C      0.663031    0.000000    0.000000
  C     -0.663032    0.000000    0.000000
  H      1.233888    0.921769    0.000000
  H     -1.233888   -0.921769    0.000000
  H     -1.233888    0.921769    0.000000
  H      1.233888   -0.921768    0.000000

----------------------------
CARTESIAN COORDINATES (A.U.)
----------------------------
  NO LB      ZA    FRAG     MASS         X           Y           Z
   0 C     6.0000    0    12.011    1.252948    0.000000    0.000000
   1 C     6.0000    0    12.011   -1.252949    0.000000    0.000000
   2 H     1.0000    0     1.008    2.331710    1.741890    0.000000
   3 H     1.0000    0     1.008   -2.331710   -1.741891    0.000000
   4 H     1.0000    0     1.008   -2.331710    1.741890    0.000000
   5 H     1.0000    0     1.008    2.331710   -1.741889    0.000000

--------------------------------
INTERNAL COORDINATES (ANGSTROEM)
--------------------------------
 C      0   0   0     0.000000000000     0.00000000     0.00000000
 C      1   0   0     1.326063500000     0.00000000     0.00000000
 H      1   2   0     1.084220770827   121.77016415     0.00000000
 H      2   1   3     1.084220762620   121.77013333   180.00000085
 H      2   1   3     1.084220507570   121.77014168     0.00000000
 H      1   2   3     1.084220175710   121.77018362   180.00000085

---------------------------
INTERNAL COORDINATES (A.U.)
---------------------------
 C      0   0   0     0.000000000000     0.00000000     0.00000000
 C      1   0   0     2.505896851189     0.00000000     0.00000000
 H      1   2   0     2.048880325571   121.77016415     0.00000000
 H      2   1   3     2.048880310064   121.77013333   180.00000085
 H      2   1   3     2.048879828089   121.77014168     0.00000000
 H      1   2   3     2.048879200964   121.77018362   180.00000085

---------------------
BASIS SET INFORMATION
---------------------
There are 2 groups of distinct atoms

 Group   1 Type C   : 18s5p2d1f contracted to 4s3p2d1f pattern {8811/311/11/1}
 Group   2 Type H   : 5s2p1d contracted to 3s2p1d pattern {311/11/1}

Atom   0C    basis set group =>   1
Atom   1C    basis set group =>   1
Atom   2H    basis set group =>   2
Atom   3H    basis set group =>   2
Atom   4H    basis set group =>   2
Atom   5H    basis set group =>   2


           ************************************************************
           *        Program running with 8 parallel MPI-processes     *
           *              working on a common directory               *
           ************************************************************
------------------------------------------------------------------------------
                             ORCA STARTUP CALCULATIONS
------------------------------------------------------------------------------
------------------------------------------------------------------------------
                   ___                                                        
                  /   \      - P O W E R E D   B Y -                         
                 /     \                                                     
                 |  |  |   _    _      __       _____    __    __             
                 |  |  |  | |  | |    /  \     |  _  \  |  |  /  |          
                  \  \/   | |  | |   /    \    | | | |  |  | /  /          
                 / \  \   | |__| |  /  /\  \   | |_| |  |  |/  /          
                |  |  |   |  __  | /  /__\  \  |    /   |      \           
                |  |  |   | |  | | |   __   |  |    \   |  |\   \          
                \     /   | |  | | |  |  |  |  | |\  \  |  | \   \       
                 \___/    |_|  |_| |__|  |__|  |_| \__\ |__|  \__/        
                                                                              
                      - O R C A' S   B I G   F R I E N D -                    
                                      &                                       
                       - I N T E G R A L  F E E D E R -                       
                                                                              
 v1 FN, 2020, v2 2021, v3 2022-2024                                           
------------------------------------------------------------------------------


----------------------
SHARK INTEGRAL PACKAGE
----------------------

Number of atoms                             ...      6
Number of basis functions                   ...    128
Number of shells                            ...     56
Maximum angular momentum                    ...      3
Integral batch strategy                     ... SHARK/LIBINT Hybrid
RI-J (if used) integral strategy            ... SPLIT-RIJ (Revised 2003 algorithm where possible)
Printlevel                                  ...      1
Contraction scheme used                     ... PARTIAL GENERAL contraction
Prescreening option                         ... SCHWARTZ
   Thresh                                   ... 2.500e-11
   Tcut                                     ... 2.500e-12
   Tpresel                                  ... 2.500e-12 
Coulomb Range Separation                    ... NOT USED
Exchange Range Separation                   ... NOT USED
Multipole approximations                    ... NOT USED
Finite Nucleus Model                        ... NOT USED
CABS basis                                  ... NOT available
Auxiliary Coulomb fitting basis             ... NOT available
Auxiliary J/K fitting basis                 ... NOT available
Auxiliary Correlation fitting basis         ... NOT available
Auxiliary 'external' fitting basis          ... NOT available

Checking pre-screening integrals            ... done (  0.0 sec) Dimension = 56
Save PGC pre-screening integrals            ... done (  0.0 sec) Dimension = 56
Calculate PGC overlap integrals             ... done (  0.0 sec) Dimension = 44
Calculating pre-screening integrals (ORCA)  ... done (  0.0 sec) Dimension = 44
Check shell pair data                       ... done (  0.0 sec)
Shell pair information
Shell pair cut-off parameter TPreSel        ...   2.5e-12
Total number of shell pairs                 ...      1596
Shell pairs after pre-screening             ...      1560
Total number of primitive shell pairs       ...      2364
Primitive shell pairs kept                  ...      2163
          la=0 lb=0:    492 shell pairs
          la=1 lb=0:    448 shell pairs
          la=1 lb=1:    105 shell pairs
          la=2 lb=0:    256 shell pairs
          la=2 lb=1:    112 shell pairs
          la=2 lb=2:     36 shell pairs
          la=3 lb=0:     64 shell pairs
          la=3 lb=1:     28 shell pairs
          la=3 lb=2:     16 shell pairs
          la=3 lb=3:      3 shell pairs

Calculating one electron integrals          ... done (  0.0 sec)
Calculating Nuclear repulsion               ... done (  0.0 sec) ENN=     33.448249187395 Eh

Diagonalization of the overlap matrix:
Smallest eigenvalue                        ... 7.046e-04
Time for diagonalization                   ...    0.001 sec
Threshold for overlap eigenvalues          ... 1.000e-07
Number of eigenvalues below threshold      ... 0
Time for construction of square roots      ...    0.001 sec
Total time needed                          ...    0.004 sec

-------------------
DFT GRID GENERATION
-------------------

General Integration Accuracy     IntAcc      ... 4.388
Radial Grid Type                 RadialGrid  ... OptM3 with GC (2021)
Angular Grid (max. ang.)         AngularGrid ... 4 (Lebedev-302)
Angular grid pruning method      GridPruning ... 4 (adaptive)
Weight generation scheme         WeightScheme... mBecke (2022)
Basis function cutoff            BFCut       ... 1.0000e-11
Integration weight cutoff        WCut        ... 1.0000e-14
Partially contracted basis set               ... off
Rotationally invariant grid construction     ... off
Angular grids for H and He will be reduced by one unit

Total number of grid points                  ...    25280
Total number of batches                      ...      398
Average number of points per batch           ...       63
Average number of grid points per atom       ...     4213

---------------------
SHARK GRID GENERATION
---------------------

General Integration Accuracy     IntAcc      ... 4.388
Radial Grid Type                 RadialGrid  ... OptM3 with GC (2021)
Angular Grid (max. ang.)         AngularGrid ... 4 (Lebedev-302)
Angular grid pruning method      GridPruning ... 4 (adaptive)
Weight generation scheme         WeightScheme... mBecke (2022)
Basis function cutoff            BFCut       ... 1.0000e-11
Integration weight cutoff        WCut        ... 1.0000e-14
Partially contracted basis set               ... off
Rotationally invariant grid construction     ... off
Angular grids for H and He will be reduced by one unit
Steep s-basis detected: some atoms will have their radial
                        grid points doubled.

Total number of grid points                  ...    37626
Total number of batches                      ...      592
Average number of points per batch           ...       63
Average number of grid points per atom       ...     6271
Initializing property integral containers    ... done (  0.0 sec)

SHARK setup successfully completed in   0.4 seconds

Maximum memory used throughout the entire STARTUP-calculation: 17.5 MB


           ************************************************************
           *        Program running with 8 parallel MPI-processes     *
           *              working on a common directory               *
           ************************************************************
-------------------------------------------------------------------------------
                                 ORCA GUESS
                   Start orbitals & Density for SCF / CASSCF
-------------------------------------------------------------------------------

------------
SCF SETTINGS
------------
Hamiltonian:
 Ab initio Hamiltonian  Method          .... Hartree-Fock(GTOs)


General Settings:
 Integral files         IntName         .... orca
 Hartree-Fock type      HFTyp           .... RHF
 Total Charge           Charge          ....    0
 Multiplicity           Mult            ....    1
 Number of Electrons    NEL             ....   16
 Basis Dimension        Dim             ....  116
 Nuclear Repulsion      ENuc            ....     33.4482491874 Eh

Convergence Acceleration:
 AO-DIIS                CNVDIIS         .... on
   Start iteration      DIISMaxIt       ....    12
   Startup error        DIISStart       ....  0.200000
   # of expansion vecs  DIISMaxEq       ....     5
   Bias factor          DIISBfac        ....   1.050
   Max. coefficient     DIISMaxC        ....  10.000
 MO-DIIS                CNVKDIIS        .... off
 Trust-Rad. Augm. Hess. CNVTRAH         .... auto
   Auto Start mean grad. ratio tolernc. ....  1.125000
   Auto Start start iteration           ....    50
   Auto Start num. interpolation iter.  ....    10
   Max. Number of Micro iterations      ....    24
   Max. Number of Macro iterations      .... Maxiter - #DIIS iter
   Number of Davidson start vectors     ....     2
   Converg. threshold    (grad. norm)   ....   1.000e-05
   Grad. Scal. Fac. for Micro threshold ....   0.100
   Minimum threshold for Micro iter.    ....   1.000e-02
   NR start threshold (gradient norm)   ....   1.000e-04
   Initial trust radius                 ....   0.400
   Minimum AH scaling param. (alpha)    ....   1.000
   Maximum AH scaling param. (alpha)    .... 1000.000
   Quad. conv. algorithm                .... NR
   White noise on init. David. guess    .... on
   Maximum white noise                  ....   0.010
   Pseudo random numbers                .... off
   Inactive MOs                         .... canonical
   Orbital update algorithm             .... Taylor
   Preconditioner                       .... Diag
   Full preconditioner red. dimension   ....   250
 SOSCF                  CNVSOSCF        .... on
   Start iteration      SOSCFMaxIt      ....   150
   Startup grad/error   SOSCFStart      ....  0.003300
   Hessian update       SOSCFHessUp     .... L-BFGS
 Level Shifting         CNVShift        .... on
   Level shift para.    LevelShift      ....    0.2500
   Turn off err/grad.   ShiftErr        ....    0.0010
 Zerner damping         CNVZerner       .... off
 Static damping         CNVDamp         .... on
   Fraction old density DampFac         ....    0.7000
   Max. Damping (<1)    DampMax         ....    0.9800
   Min. Damping (>=0)   DampMin         ....    0.0000
   Turn off err/grad.   DampErr         ....    0.1000

SCF Procedure:
 Maximum # iterations   MaxIter         ....   125
 SCF integral mode      SCFMode         .... Direct
   Integral package                     .... SHARK and LIBINT hybrid scheme
 Reset frequency        DirectResetFreq ....    20
 Integral Threshold     Thresh          ....  2.500e-11 Eh
 Primitive CutOff       TCut            ....  2.500e-12 Eh

Convergence Tolerance:
 Convergence Check Mode ConvCheckMode   .... Total+1el-Energy
 Convergence forced     ConvForced      .... 1
 Energy Change          TolE            ....  1.000e-08 Eh
 1-El. energy change                    ....  1.000e-05 Eh
 Orbital Gradient       TolG            ....  1.000e-05
 Orbital Rotation angle TolX            ....  1.000e-05
 DIIS Error             TolErr          ....  5.000e-07

------------------------------
INITIAL GUESS: MODEL POTENTIAL
------------------------------
Loading Hartree-Fock densities                     ... done
Calculating cut-offs                               ... done
Initializing the effective Hamiltonian             ... done
Setting up the integral package (SHARK)            ... done
Starting the Coulomb interaction                   ... done (   0.0 sec)
Making the grid                                    ... done (   0.0 sec)
Mapping shells                                     ... done
Starting the XC term evaluation                    ... done (   0.0 sec)
Transforming the Hamiltonian                       ... done (   0.0 sec)
Diagonalizing the Hamiltonian                      ... done (   0.0 sec)
Back transforming the eigenvectors                 ... done (   0.0 sec)
Now organizing SCF variables                       ... done
                      ------------------
                      INITIAL GUESS DONE (   0.0 sec)
                      ------------------
             **** ENERGY FILE WAS UPDATED (orca.en.tmp) ****
Finished Guess after   0.1 sec
Maximum memory used throughout the entire GUESS-calculation: 7.0 MB


           ************************************************************
           *        Program running with 8 parallel MPI-processes     *
           *              working on a common directory               *
           ************************************************************

-------------------------------------------------------------------------------------------
                                      ORCA LEAN-SCF
                              memory conserving SCF solver
-------------------------------------------------------------------------------------------

----------------------------------------D-I-I-S--------------------------------------------
Iteration    Energy (Eh)           Delta-E    RMSDP     MaxDP     DIISErr   Damp  Time(sec)
-------------------------------------------------------------------------------------------
               ***  Starting incremental Fock matrix formation  ***
    1    -77.9300164440748802     0.00e+00  1.25e-03  2.58e-02  2.33e-01  0.700   0.1
    2    -77.9770024466738221    -4.70e-02  9.90e-04  1.93e-02  1.54e-01  0.700   0.1
                               ***Turning on AO-DIIS***
    3    -78.0058282604418025    -2.88e-02  5.87e-04  1.52e-02  9.37e-02  0.700   0.1
    4    -78.0240595111104085    -1.82e-02  1.31e-03  3.59e-02  6.43e-02  0.000   0.1
    5    -78.0638597625650732    -3.98e-02  8.85e-05  1.83e-03  4.45e-03  0.000   0.1
                              *** Initializing SOSCF ***
---------------------------------------S-O-S-C-F--------------------------------------
Iteration    Energy (Eh)           Delta-E    RMSDP     MaxDP     MaxGrad    Time(sec)
--------------------------------------------------------------------------------------
    6    -78.0639358860752282    -7.61e-05  4.33e-05  6.03e-04  1.75e-03     0.1
               *** Restarting incremental Fock matrix formation ***
    7    -78.0639485597410214    -1.27e-05  1.73e-05  2.55e-04  3.55e-04     0.1
    8    -78.0639495144473585    -9.55e-07  8.42e-06  1.54e-04  1.15e-04     0.1
    9    -78.0639496361759484    -1.22e-07  4.17e-07  7.96e-06  3.87e-06     0.1
   10    -78.0639496365142520    -3.38e-10  1.41e-07  2.04e-06  1.32e-06     0.1
                 **** Energy Check signals convergence ****

               *****************************************************
               *                     SUCCESS                       *
               *           SCF CONVERGED AFTER  10 CYCLES          *
               *****************************************************

             **** ENERGY FILE WAS UPDATED (orca.en.tmp) ****

----------------
TOTAL SCF ENERGY
----------------

Total Energy       :        -78.06394963651425 Eh           -2124.22806 eV

Components:
Nuclear Repulsion  :         33.44824918739490 Eh             910.17313 eV
Electronic Energy  :       -111.51219882390916 Eh           -3034.40120 eV
One Electron Energy:       -170.23680065035572 Eh           -4632.37885 eV
Two Electron Energy:         58.72460182644656 Eh            1597.97766 eV

Virial components:
Potential Energy   :       -156.00559644748370 Eh           -4245.12810 eV
Kinetic Energy     :         77.94164681096946 Eh            2120.90003 eV
Virial Ratio       :          2.00156915885857

---------------
SCF CONVERGENCE
---------------

  Last Energy change         ...    3.3830e-10  Tolerance :   1.0000e-08
  Last MAX-Density change    ...    2.0447e-06  Tolerance :   1.0000e-07
  Last RMS-Density change    ...    1.4055e-07  Tolerance :   5.0000e-09
  Last DIIS Error            ...    1.7535e-03  Tolerance :   5.0000e-07
  Last Orbital Gradient      ...    1.3180e-06  Tolerance :   1.0000e-05
  Last Orbital Rotation      ...    2.1710e-06  Tolerance :   1.0000e-05


----------------
ORBITAL ENERGIES
----------------

  NO   OCC          E(Eh)            E(eV) 
   0   2.0000     -11.229116      -305.5598 
   1   2.0000     -11.227340      -305.5115 
   2   2.0000      -1.034098       -28.1392 
   3   2.0000      -0.791035       -21.5252 
   4   2.0000      -0.641409       -17.4536 
   5   2.0000      -0.588721       -16.0199 
   6   2.0000      -0.504040       -13.7156 
   7   2.0000      -0.378039       -10.2870 
   8   0.0000       0.153281         4.1710 
   9   0.0000       0.159180         4.3315 
  10   0.0000       0.186848         5.0844 
  11   0.0000       0.190679         5.1886 
  12   0.0000       0.241500         6.5715 
  13   0.0000       0.368853        10.0370 
  14   0.0000       0.374074        10.1791 
  15   0.0000       0.439755        11.9663 
  16   0.0000       0.445888        12.1332 
  17   0.0000       0.486371        13.2348 
  18   0.0000       0.566149        15.4057 
*Only the first 10 virtual orbitals were printed.
-------
TIMINGS
-------

Total SCF time: 0 days 0 hours 0 min 1 sec 

Total time                  ....       1.020 sec
Sum of individual times     ....       1.014 sec  ( 99.5%)

SCF preparation             ....       0.052 sec  (  5.1%)
Fock matrix formation       ....       0.826 sec  ( 81.0%)
  Startup                   ....       0.009 sec  (  1.1% of F)
  Coulomb+Exchange Fock     ....       0.800 sec  ( 97.0% of F)
Diagonalization             ....       0.000 sec  (  0.0%)
Density matrix formation    ....       0.018 sec  (  1.7%)
Total Energy calculation    ....       0.017 sec  (  1.6%)
Population analysis         ....       0.000 sec  (  0.0%)
Orbital Transformation      ....       0.011 sec  (  1.1%)
Orbital Orthonormalization  ....       0.000 sec  (  0.0%)
DIIS solution               ....       0.066 sec  (  6.5%)
SOSCF solution              ....       0.024 sec  (  2.4%)
Finished LeanSCF after   1.0 sec

Maximum memory used throughout the entire LEANSCF-calculation: 11.3 MB


           ************************************************************
           *        Program running with 8 parallel MPI-processes     *
           *              working on a common directory               *
           ************************************************************

------------------------------------------------------------------------------
                                ORCA  MP2 
------------------------------------------------------------------------------

NOTE: Switching SHARK to Segmented Contraction for MP2
      If that is not desired please turn off the PGCFlag in the input (%shark PGCFlag 0 end)
      Number of basis functions in BAS before restore: 128
      Number of basis functions in BAS after restore : 116
Freezing NCore=4 chemical core electrons
MP2 will be done in the AO integral direct mode
The Q1-step will be done using symmetric double matrices
Dimension of the basis                    ...  116
Memory devoted for MP2                    ... 4096 MB   
Memory needed for all in one shot         ...    7 MB
Number of MOs that can be treated together...  681      
MP2 density construction                  ... relaxed
The MP2 gradient is requested => amplitudes will be stored on disk
Total number of MOs              ...    6
Number of MOs treated per batch  ...    1 
Number of batches necessary      ...    1 
OPERATORS   0/  0 PASS   1
OPERATORS   0/  0 PASS   0
OPERATORS   0/  0 PASS   2
OPERATORS   0/  0 PASS   5
OPERATORS   0/  0 PASS   3
OPERATORS   0/  0 PASS   4
-----------------------------------------------
 MP2 CORRELATION ENERGY   :     -0.335256394 Eh
-----------------------------------------------


---------------------
MP2 DENSITY FORMATION
---------------------

Completing the external part of the density      ... done
Storing the unrelaxed density                    ... done

Calculating G(D)                                 ... done
Completing the Lagrangian                        ... done
Solving the Z-vector equations                   ... 
-------------------
SHARK CP-SCF DRIVER
-------------------

Dimension of the orbital basis          ...    116
Dimension of the CPSCF-problem          ...    864
Number of operators                     ...      1
Max. number of iterations               ...    128
Convergence Tolerance                   ... 1.0e-04
Number of perturbations                 ...      1
Perturbation type                       ... REAL

----------------------------
POPLE LINEAR EQUATION SOLVER
----------------------------

  ITERATION   0:   ||err||_max =   3.7244e-02 (   0.1 sec)
  ITERATION   1:   ||err||_max =   6.5345e-03 (   0.1 sec)
  ITERATION   2:   ||err||_max =   1.1107e-03 (   0.1 sec)
  ITERATION   3:   ||err||_max =   1.8987e-04 (   0.1 sec)
  ITERATION   4:   ||err||_max =   2.3003e-05 (   0.1 sec)
                                                 ... done
Finalizing the relaxed density                   ... done
Transforming P to the AO basis                   ... done
Storing the relaxed density                      ... done

------------------------------------
ENERGY WEIGHTED DENSITY FINALIZATION
------------------------------------

Gathering the parts of the W-matrix              ...                                                      done
Forming the Z-density                            ... done
Transforming Z to the AO basis                   ... done
Calculating G(Z)                                 ... done
Finalizing the W-matrix                          ...                                                      done
Transforming W to the AO basis and storing       ... done

----------------------------------
MP2 DERIVATIVE INTEGRAL GENERATION
----------------------------------

Input SCF Electron Density              ... orca.scfp
Input Correlated Electron Density       ... orca.pmp2re
Input Energy Weighted Density           ... orca.wmp2.tmp
Input Wavefunction Amplitudes           ... orca.mp2tsaa.tmp

Nuclear repulsion gradient              ... done (  0.0 sec)
HCore & Overlap gradient  (SHARK)       ... done (  0.0 sec)
Analytic two-electron gradient terms    ... 
  Batch handling in the gradient evaluation:
  General contraction                   ... not used
  Memory available                      ... 4089.7 MB
  Memory per occupied orbital in Q2     ...    0.6 MB
  Memory per occupied orbital in Q3     ...    0.0 MB
  Total memory requirement per |i>      ...    0.7 MB
  Number of orbitals treated per batch  ...      6
  Number of batches to be done          ...      1
done (  0.6 sec)

---------------------------------------
MP2 TOTAL ENERGY:      -78.399206030 Eh
---------------------------------------

The final MP2 gradient
  0:  -0.01029882  -0.00000036  -0.00000000
  1:   0.01029880   0.00000016  -0.00000000
  2:   0.00215234   0.00154953  -0.00000000
  3:  -0.00215228  -0.00154961   0.00000000
  4:  -0.00215216   0.00154944  -0.00000000
  5:   0.00215213  -0.00154917   0.00000000

-----------------------------------
NORM OF THE MP2 GRADIENT:  0.015500
-----------------------------------

Maximum memory used throughout the entire MP2-calculation: 48.3 MB

-------------------------   --------------------
FINAL SINGLE POINT ENERGY       -78.399206030270
-------------------------   --------------------

------------------------------------------------------------------------------
                         ORCA GEOMETRY RELAXATION STEP
------------------------------------------------------------------------------

Reading the OPT-File                    .... done
Getting information on internals        .... done
Copying old internal coords+grads       .... done
Making the new internal coordinates     .... (2022 redundants) done
Validating the new internal coordinates .... (2022 redundants) done
Calculating the B-matrix                .... done
Calculating the G,G- and P matrices     .... done
Transforming gradient to internals      .... done
Projecting the internal gradient        .... done
Number of atoms                         ....   6
Number of internal coordinates          ....  15
Current Energy                          ....   -78.399206030 Eh
Current gradient norm                   ....     0.015500394 Eh/bohr
Maximum allowed component of the step   ....  0.300
Current trust radius                    ....  0.300
Evaluating the initial hessian          ....  (Almloef) done
Projecting the Hessian                  .... done
Forming the augmented Hessian           .... done
Diagonalizing the augmented Hessian     .... done
Last element of RFO vector              ....  0.999854181
Lowest eigenvalues of augmented Hessian:
 -0.000128816  0.045004891  0.045004891  0.045004891  0.318241550
Length of the computed step             ....  0.017079258
The final length of the internal step   ....  0.017079258
Converting the step to Cartesian space:
 Initial RMS(Int)=    0.0044098454
Transforming coordinates:
 Iter   0:  RMS(Cart)=    0.0026014084 RMS(Int)=    1.6223174662
done
Storing new coordinates                 .... done

                                .--------------------.
          ----------------------|Geometry convergence|-------------------------
          Item                value                   Tolerance       Converged
          ---------------------------------------------------------------------
          RMS gradient        0.0020929362            0.0000300000      NO
          MAX gradient        0.0059943537            0.0001000000      NO
          RMS step            0.0044098454            0.0006000000      NO
          MAX step            0.0075844905            0.0010000000      NO
          ........................................................
          Max(Bonds)      0.0040      Max(Angles)    0.25
          Max(Dihed)        0.00      Max(Improp)    0.00
          ---------------------------------------------------------------------

The optimization has not yet converged - more geometry cycles are needed


    ---------------------------------------------------------------------------
                         Redundant Internal Coordinates
                            (Angstroem and degrees)

        Definition                    Value    dE/dq     Step     New-Value
    ----------------------------------------------------------------------------
     1. B(C   1,C   0)                1.3261 -0.005994  0.0040    1.3301   
     2. B(H   2,C   0)                1.0842  0.002451 -0.0035    1.0807   
     3. B(H   3,C   1)                1.0842  0.002451 -0.0035    1.0807   
     4. B(H   4,C   1)                1.0842  0.002450 -0.0035    1.0807   
     5. B(H   5,C   0)                1.0842  0.002450 -0.0035    1.0807   
     6. A(H   2,C   0,H   5)          116.46 -0.001385    0.25    116.71   
     7. A(C   1,C   0,H   5)          121.77  0.000693   -0.12    121.65   
     8. A(C   1,C   0,H   2)          121.77  0.000693   -0.12    121.65   
     9. A(C   0,C   1,H   4)          121.77  0.000692   -0.12    121.65   
    10. A(H   3,C   1,H   4)          116.46 -0.001385    0.25    116.71   
    11. A(C   0,C   1,H   3)          121.77  0.000692   -0.12    121.65   
    12. D(H   3,C   1,C   0,H   5)      0.00 -0.000000    0.00      0.00   
    13. D(H   4,C   1,C   0,H   2)      0.00  0.000000   -0.00     -0.00   
    14. D(H   4,C   1,C   0,H   5)    180.00 -0.000000    0.00    180.00   
    15. D(H   3,C   1,C   0,H   2)    180.00  0.000000   -0.00    180.00   
    ----------------------------------------------------------------------------

Geometry step timings:
Preparation and reading OPT file:      0.000 s (19.392 %)
Internal coordinates            :      0.000 s ( 3.038 %)
B/P matrices and projection     :      0.000 s (10.813 %)
Hessian update/contruction      :      0.000 s (17.426 %)
Making the step                 :      0.000 s (23.592 %)
Converting the step to Cartesian:      0.000 s ( 3.485 %)
Storing new data                :      0.000 s ( 4.111 %)
Checking convergence            :      0.000 s ( 0.089 %)
Final printing                  :      0.000 s (17.069 %)
Total time                      :      0.001 s

Time for energy+gradient        :      4.420 s
Time for complete geometry iter :      4.609 s

         *************************************************************
         *                GEOMETRY OPTIMIZATION CYCLE   2            *
         *************************************************************
---------------------------------
CARTESIAN COORDINATES (ANGSTROEM)
---------------------------------
  C      0.665038    0.000000    0.000000
  C     -0.665039    0.000000    0.000000
  H      1.232039    0.920008   -0.000000
  H     -1.232039   -0.920008   -0.000000
  H     -1.232040    0.920008   -0.000000
  H      1.232040   -0.920008   -0.000000

----------------------------
CARTESIAN COORDINATES (A.U.)
----------------------------
  NO LB      ZA    FRAG     MASS         X           Y           Z
   0 C     6.0000    0    12.011    1.256740    0.000000    0.000000
   1 C     6.0000    0    12.011   -1.256741    0.000000    0.000000
   2 H     1.0000    0     1.008    2.328217    1.738563   -0.000000
   3 H     1.0000    0     1.008   -2.328217   -1.738563   -0.000000
   4 H     1.0000    0     1.008   -2.328218    1.738563   -0.000000
   5 H     1.0000    0     1.008    2.328218   -1.738563   -0.000000

--------------------------------
INTERNAL COORDINATES (ANGSTROEM)
--------------------------------
 C      0   0   0     0.000000000000     0.00000000     0.00000000
 C      1   0   0     1.330077039535     0.00000000     0.00000000
 H      1   2   0     1.080696433675   121.64553452     0.00000000
 H      2   1   3     1.080696383157   121.64551322   179.99999915
 H      2   1   3     1.080696417328   121.64552531     0.00000000
 H      1   2   3     1.080696451393   121.64555224   180.00000121

---------------------------
INTERNAL COORDINATES (A.U.)
---------------------------
 C      0   0   0     0.000000000000     0.00000000     0.00000000
 C      1   0   0     2.513481341739     0.00000000     0.00000000
 H      1   2   0     2.042220293551   121.64553452     0.00000000
 H      2   1   3     2.042220198087   121.64551322   179.99999915
 H      2   1   3     2.042220262659   121.64552531     0.00000000
 H      1   2   3     2.042220327033   121.64555224   180.00000121



           ************************************************************
           *        Program running with 8 parallel MPI-processes     *
           *              working on a common directory               *
           ************************************************************
------------------------------------------------------------------------------
                   ___                                                        
                  /   \      - P O W E R E D   B Y -                         
                 /     \                                                     
                 |  |  |   _    _      __       _____    __    __             
                 |  |  |  | |  | |    /  \     |  _  \  |  |  /  |          
                  \  \/   | |  | |   /    \    | | | |  |  | /  /          
                 / \  \   | |__| |  /  /\  \   | |_| |  |  |/  /          
                |  |  |   |  __  | /  /__\  \  |    /   |      \           
                |  |  |   | |  | | |   __   |  |    \   |  |\   \          
                \     /   | |  | | |  |  |  |  | |\  \  |  | \   \       
                 \___/    |_|  |_| |__|  |__|  |_| \__\ |__|  \__/        
                                                                              
                      - O R C A' S   B I G   F R I E N D -                    
                                      &                                       
                       - I N T E G R A L  F E E D E R -                       
                                                                              
 v1 FN, 2020, v2 2021, v3 2022-2024                                           
------------------------------------------------------------------------------


----------------------
SHARK INTEGRAL PACKAGE
----------------------

Number of atoms                             ...      6
Number of basis functions                   ...    128
Number of shells                            ...     56
Maximum angular momentum                    ...      3
Integral batch strategy                     ... SHARK/LIBINT Hybrid
RI-J (if used) integral strategy            ... SPLIT-RIJ (Revised 2003 algorithm where possible)
Printlevel                                  ...      1
Contraction scheme used                     ... PARTIAL GENERAL contraction
Prescreening option                         ... SCHWARTZ
   Thresh                                   ... 2.500e-11
   Tcut                                     ... 2.500e-12
   Tpresel                                  ... 2.500e-12 
Coulomb Range Separation                    ... NOT USED
Exchange Range Separation                   ... NOT USED
Multipole approximations                    ... NOT USED
Finite Nucleus Model                        ... NOT USED
CABS basis                                  ... NOT available
Auxiliary Coulomb fitting basis             ... NOT available
Auxiliary J/K fitting basis                 ... NOT available
Auxiliary Correlation fitting basis         ... NOT available
Auxiliary 'external' fitting basis          ... NOT available

Checking pre-screening integrals            ... done (  0.0 sec) Dimension = 56
Save PGC pre-screening integrals            ... done (  0.0 sec) Dimension = 56
Calculate PGC overlap integrals             ... done (  0.0 sec) Dimension = 44
Calculating pre-screening integrals (ORCA)  ... done (  0.0 sec) Dimension = 44
Check shell pair data                       ... done (  0.0 sec)
Shell pair information
Shell pair cut-off parameter TPreSel        ...   2.5e-12
Total number of shell pairs                 ...      1596
Shell pairs after pre-screening             ...      1560
Total number of primitive shell pairs       ...      2364
Primitive shell pairs kept                  ...      2163
          la=0 lb=0:    492 shell pairs
          la=1 lb=0:    448 shell pairs
          la=1 lb=1:    105 shell pairs
          la=2 lb=0:    256 shell pairs
          la=2 lb=1:    112 shell pairs
          la=2 lb=2:     36 shell pairs
          la=3 lb=0:     64 shell pairs
          la=3 lb=1:     28 shell pairs
          la=3 lb=2:     16 shell pairs
          la=3 lb=3:      3 shell pairs

Calculating one electron integrals          ... done (  0.0 sec)
Calculating Nuclear repulsion               ... done (  0.0 sec) ENN=     33.447195178807 Eh

Diagonalization of the overlap matrix:
Smallest eigenvalue                        ... 7.112e-04
Time for diagonalization                   ...    0.001 sec
Threshold for overlap eigenvalues          ... 1.000e-07
Number of eigenvalues below threshold      ... 0
Time for construction of square roots      ...    0.001 sec
Total time needed                          ...    0.003 sec

-------------------
DFT GRID GENERATION
-------------------

General Integration Accuracy     IntAcc      ... 4.388
Radial Grid Type                 RadialGrid  ... OptM3 with GC (2021)
Angular Grid (max. ang.)         AngularGrid ... 4 (Lebedev-302)
Angular grid pruning method      GridPruning ... 4 (adaptive)
Weight generation scheme         WeightScheme... mBecke (2022)
Basis function cutoff            BFCut       ... 1.0000e-11
Integration weight cutoff        WCut        ... 1.0000e-14
Partially contracted basis set               ... off
Rotationally invariant grid construction     ... off
Angular grids for H and He will be reduced by one unit

Total number of grid points                  ...    25280
Total number of batches                      ...      398
Average number of points per batch           ...       63
Average number of grid points per atom       ...     4213

---------------------
SHARK GRID GENERATION
---------------------

General Integration Accuracy     IntAcc      ... 4.388
Radial Grid Type                 RadialGrid  ... OptM3 with GC (2021)
Angular Grid (max. ang.)         AngularGrid ... 4 (Lebedev-302)
Angular grid pruning method      GridPruning ... 4 (adaptive)
Weight generation scheme         WeightScheme... mBecke (2022)
Basis function cutoff            BFCut       ... 1.0000e-11
Integration weight cutoff        WCut        ... 1.0000e-14
Partially contracted basis set               ... off
Rotationally invariant grid construction     ... off
Angular grids for H and He will be reduced by one unit
Steep s-basis detected: some atoms will have their radial
                        grid points doubled.

Total number of grid points                  ...    37630
Total number of batches                      ...      592
Average number of points per batch           ...       63
Average number of grid points per atom       ...     6272
Initializing property integral containers    ... done (  0.0 sec)

SHARK setup successfully completed in   0.3 seconds

Maximum memory used throughout the entire STARTUP-calculation: 17.6 MB


           ************************************************************
           *        Program running with 8 parallel MPI-processes     *
           *              working on a common directory               *
           ************************************************************
Occupation numbers will be reassigned to an Aufbau configuration
             **** ENERGY FILE WAS UPDATED (orca.en.tmp) ****
Finished Guess after   0.1 sec
Maximum memory used throughout the entire GUESS-calculation: 7.1 MB


           ************************************************************
           *        Program running with 8 parallel MPI-processes     *
           *              working on a common directory               *
           ************************************************************
----------------------------------------D-I-I-S--------------------------------------------
Iteration    Energy (Eh)           Delta-E    RMSDP     MaxDP     DIISErr   Damp  Time(sec)
-------------------------------------------------------------------------------------------
               ***  Starting incremental Fock matrix formation  ***
                              *** Initializing SOSCF ***
---------------------------------------S-O-S-C-F--------------------------------------
Iteration    Energy (Eh)           Delta-E    RMSDP     MaxDP     MaxGrad    Time(sec)
--------------------------------------------------------------------------------------
    1    -78.0639556588682382     0.00e+00  5.38e-05  1.01e-03  1.67e-04     0.1
               *** Restarting incremental Fock matrix formation ***
    2    -78.0639717756769898    -1.61e-05  1.92e-05  2.51e-04  4.11e-04     0.1
    3    -78.0639738738752982    -2.10e-06  1.01e-05  1.60e-04  1.52e-04     0.1
    4    -78.0639741242407013    -2.50e-07  8.95e-07  1.29e-05  1.88e-05     0.1
    5    -78.0639741276239221    -3.38e-09  3.53e-07  7.05e-06  7.81e-06     0.1
                 **** Energy Check signals convergence ****

               *****************************************************
               *                     SUCCESS                       *
               *           SCF CONVERGED AFTER   5 CYCLES          *
               *****************************************************

             **** ENERGY FILE WAS UPDATED (orca.en.tmp) ****

----------------
TOTAL SCF ENERGY
----------------

Total Energy       :        -78.06397412762392 Eh           -2124.22873 eV

Components:
Nuclear Repulsion  :         33.44719517880741 Eh             910.14445 eV
Electronic Energy  :       -111.51116930643133 Eh           -3034.37318 eV
One Electron Energy:       -170.23099052474234 Eh           -4632.22075 eV
Two Electron Energy:         58.71982121831101 Eh            1597.84757 eV

Virial components:
Potential Energy   :       -156.01373618556454 Eh           -4245.34959 eV
Kinetic Energy     :         77.94976205794063 Eh            2121.12086 eV
Virial Ratio       :          2.00146520100470

---------------
SCF CONVERGENCE
---------------

  Last Energy change         ...    3.3832e-09  Tolerance :   1.0000e-08
  Last MAX-Density change    ...    7.0465e-06  Tolerance :   1.0000e-07
  Last RMS-Density change    ...    3.5290e-07  Tolerance :   5.0000e-09
  Last DIIS Error            ...    1.5116e-03  Tolerance :   5.0000e-07
  Last Orbital Gradient      ...    7.8118e-06  Tolerance :   1.0000e-05
  Last Orbital Rotation      ...    1.2186e-05  Tolerance :   1.0000e-05


Total SCF time: 0 days 0 hours 0 min 0 sec 
Finished LeanSCF after   0.5 sec

Maximum memory used throughout the entire LEANSCF-calculation: 11.3 MB


           ************************************************************
           *        Program running with 8 parallel MPI-processes     *
           *              working on a common directory               *
           ************************************************************

------------------------------------------------------------------------------
                                ORCA  MP2 
------------------------------------------------------------------------------

NOTE: Switching SHARK to Segmented Contraction for MP2
      If that is not desired please turn off the PGCFlag in the input (%shark PGCFlag 0 end)
      Number of basis functions in BAS before restore: 128
      Number of basis functions in BAS after restore : 116
Freezing NCore=4 chemical core electrons
MP2 will be done in the AO integral direct mode
The Q1-step will be done using symmetric double matrices
Dimension of the basis                    ...  116
Memory devoted for MP2                    ... 4096 MB   
Memory needed for all in one shot         ...    7 MB
Number of MOs that can be treated together...  681      
MP2 density construction                  ... relaxed
The MP2 gradient is requested => amplitudes will be stored on disk
Total number of MOs              ...    6
Number of MOs treated per batch  ...    1 
Number of batches necessary      ...    1 
OPERATORS   0/  0 PASS   1
OPERATORS   0/  0 PASS   0
OPERATORS   0/  0 PASS   2
OPERATORS   0/  0 PASS   5
OPERATORS   0/  0 PASS   4
OPERATORS   0/  0 PASS   3
-----------------------------------------------
 MP2 CORRELATION ENERGY   :     -0.335310657 Eh
-----------------------------------------------


---------------------
MP2 DENSITY FORMATION
---------------------

Completing the external part of the density      ... done
Storing the unrelaxed density                    ... done

Calculating G(D)                                 ... done
Completing the Lagrangian                        ... done
Solving the Z-vector equations                   ... 
-------------------
SHARK CP-SCF DRIVER
-------------------

Dimension of the orbital basis          ...    116
Dimension of the CPSCF-problem          ...    864
Number of operators                     ...      1
Max. number of iterations               ...    128
Convergence Tolerance                   ... 1.0e-04
Number of perturbations                 ...      1
Perturbation type                       ... REAL

----------------------------
POPLE LINEAR EQUATION SOLVER
----------------------------

  ITERATION   0:   ||err||_max =   3.7295e-02 (   0.1 sec)
  ITERATION   1:   ||err||_max =   6.5580e-03 (   0.1 sec)
  ITERATION   2:   ||err||_max =   1.1230e-03 (   0.1 sec)
  ITERATION   3:   ||err||_max =   1.9192e-04 (   0.1 sec)
  ITERATION   4:   ||err||_max =   2.3055e-05 (   0.1 sec)
                                                 ... done
Finalizing the relaxed density                   ... done
Transforming P to the AO basis                   ... done
Storing the relaxed density                      ... done

------------------------------------
ENERGY WEIGHTED DENSITY FINALIZATION
------------------------------------

Gathering the parts of the W-matrix              ...                                                      done
Forming the Z-density                            ... done
Transforming Z to the AO basis                   ... done
Calculating G(Z)                                 ... done
Finalizing the W-matrix                          ...                                                      done
Transforming W to the AO basis and storing       ... done

----------------------------------
MP2 DERIVATIVE INTEGRAL GENERATION
----------------------------------

Input SCF Electron Density              ... orca.scfp
Input Correlated Electron Density       ... orca.pmp2re
Input Energy Weighted Density           ... orca.wmp2.tmp
Input Wavefunction Amplitudes           ... orca.mp2tsaa.tmp

Nuclear repulsion gradient              ... done (  0.0 sec)
HCore & Overlap gradient  (SHARK)       ... done (  0.0 sec)
Analytic two-electron gradient terms    ... 
  Batch handling in the gradient evaluation:
  General contraction                   ... not used
  Memory available                      ... 4089.6 MB
  Memory per occupied orbital in Q2     ...    0.6 MB
  Memory per occupied orbital in Q3     ...    0.0 MB
  Total memory requirement per |i>      ...    0.7 MB
  Number of orbitals treated per batch  ...      6
  Number of batches to be done          ...      1
done (  0.5 sec)

---------------------------------------
MP2 TOTAL ENERGY:      -78.399284785 Eh
---------------------------------------

The final MP2 gradient
  0:  -0.00308527  -0.00000003  -0.00000000
  1:   0.00308516   0.00000002  -0.00000000
  2:   0.00075245  -0.00036749   0.00000000
  3:  -0.00075242   0.00036746   0.00000000
  4:  -0.00075246  -0.00036743   0.00000000
  5:   0.00075252   0.00036747   0.00000000

-----------------------------------
NORM OF THE MP2 GRADIENT:  0.004674
-----------------------------------

Maximum memory used throughout the entire MP2-calculation: 48.3 MB

-------------------------   --------------------
FINAL SINGLE POINT ENERGY       -78.399284784804
-------------------------   --------------------

------------------------------------------------------------------------------
                         ORCA GEOMETRY RELAXATION STEP
------------------------------------------------------------------------------

Reading the OPT-File                    .... done
Getting information on internals        .... done
Copying old internal coords+grads       .... done
Making the new internal coordinates     .... (2022 redundants) done
Validating the new internal coordinates .... (2022 redundants) done
Calculating the B-matrix                .... done
Calculating the G,G- and P matrices     .... done
Transforming gradient to internals      .... done
Projecting the internal gradient        .... done
Number of atoms                         ....   6
Number of internal coordinates          ....  15
Current Energy                          ....   -78.399284785 Eh
Current gradient norm                   ....     0.004673544 Eh/bohr
Maximum allowed component of the step   ....  0.300
Current trust radius                    ....  0.300
Updating the Hessian (BFGS)             .... done
Forming the augmented Hessian           .... done
Diagonalizing the augmented Hessian     .... done
Last element of RFO vector              ....  0.999952904
Lowest eigenvalues of augmented Hessian:
 -0.000023139  0.045004891  0.045004891  0.045004891  0.226841617
Length of the computed step             ....  0.009705613
The final length of the internal step   ....  0.009705613
Converting the step to Cartesian space:
 Initial RMS(Int)=    0.0025059785
Transforming coordinates:
 Iter   0:  RMS(Cart)=    0.0018541239 RMS(Int)=    0.0025063012
done
Storing new coordinates                 .... done
The predicted energy change is          ....    -0.000011570
Previously predicted energy change      ....    -0.000064427
Actually observed energy change         ....    -0.000078755
Ratio of predicted to observed change   ....     1.222391208
New trust radius                        ....     0.450000000

                                .--------------------.
          ----------------------|Geometry convergence|-------------------------
          Item                value                   Tolerance       Converged
          ---------------------------------------------------------------------
          Energy change      -0.0000787545            0.0000010000      NO
          RMS gradient        0.0006524971            0.0000300000      NO
          MAX gradient        0.0015802909            0.0001000000      NO
          RMS step            0.0025059785            0.0006000000      NO
          MAX step            0.0050966719            0.0010000000      NO
          ........................................................
          Max(Bonds)      0.0018      Max(Angles)    0.29
          Max(Dihed)        0.00      Max(Improp)    0.00
          ---------------------------------------------------------------------

The optimization has not yet converged - more geometry cycles are needed


    ---------------------------------------------------------------------------
                         Redundant Internal Coordinates
                            (Angstroem and degrees)

        Definition                    Value    dE/dq     Step     New-Value
    ----------------------------------------------------------------------------
     1. B(C   1,C   0)                1.3301 -0.001580  0.0018    1.3319   
     2. B(H   2,C   0)                1.0807  0.000082 -0.0006    1.0801   
     3. B(H   3,C   1)                1.0807  0.000082 -0.0006    1.0801   
     4. B(H   4,C   1)                1.0807  0.000082 -0.0006    1.0801   
     5. B(H   5,C   0)                1.0807  0.000082 -0.0006    1.0801   
     6. A(H   2,C   0,H   5)          116.71 -0.001135    0.29    117.00   
     7. A(C   1,C   0,H   5)          121.65  0.000567   -0.15    121.50   
     8. A(C   1,C   0,H   2)          121.65  0.000567   -0.15    121.50   
     9. A(C   0,C   1,H   4)          121.65  0.000567   -0.15    121.50   
    10. A(H   3,C   1,H   4)          116.71 -0.001135    0.29    117.00   
    11. A(C   0,C   1,H   3)          121.65  0.000567   -0.15    121.50   
    12. D(H   3,C   1,C   0,H   5)      0.00 -0.000000    0.00      0.00   
    13. D(H   4,C   1,C   0,H   2)     -0.00  0.000000   -0.00     -0.00   
    14. D(H   4,C   1,C   0,H   5)   -180.00 -0.000000    0.00   -180.00   
    15. D(H   3,C   1,C   0,H   2)    180.00  0.000000   -0.00    180.00   
    ----------------------------------------------------------------------------

Geometry step timings:
Preparation and reading OPT file:      0.000 s (26.675 %)
Internal coordinates            :      0.000 s ( 3.474 %)
B/P matrices and projection     :      0.000 s (11.042 %)
Hessian update/contruction      :      0.000 s (17.742 %)
Making the step                 :      0.000 s ( 7.568 %)
Converting the step to Cartesian:      0.000 s ( 2.481 %)
Storing new data                :      0.000 s ( 4.839 %)
Checking convergence            :      0.000 s ( 1.861 %)
Final printing                  :      0.000 s (24.069 %)
Total time                      :      0.001 s

Time for energy+gradient        :      3.563 s
Time for complete geometry iter :      3.752 s

         *************************************************************
         *                GEOMETRY OPTIMIZATION CYCLE   3            *
         *************************************************************
---------------------------------
CARTESIAN COORDINATES (ANGSTROEM)
---------------------------------
  C      0.665950    0.000000    0.000000
  C     -0.665951    0.000000    0.000000
  H      1.230315    0.920977   -0.000000
  H     -1.230315   -0.920977   -0.000000
  H     -1.230316    0.920977   -0.000000
  H      1.230315   -0.920977   -0.000000

----------------------------
CARTESIAN COORDINATES (A.U.)
----------------------------
  NO LB      ZA    FRAG     MASS         X           Y           Z
   0 C     6.0000    0    12.011    1.258464    0.000000    0.000000
   1 C     6.0000    0    12.011   -1.258464    0.000000    0.000000
   2 H     1.0000    0     1.008    2.324959    1.740394   -0.000000
   3 H     1.0000    0     1.008   -2.324959   -1.740394   -0.000000
   4 H     1.0000    0     1.008   -2.324960    1.740394   -0.000000
   5 H     1.0000    0     1.008    2.324959   -1.740394   -0.000000

--------------------------------
INTERNAL COORDINATES (ANGSTROEM)
--------------------------------
 C      0   0   0     0.000000000000     0.00000000     0.00000000
 C      1   0   0     1.331901088231     0.00000000     0.00000000
 H      1   2   0     1.080141762619   121.49953512     0.00000000
 H      2   1   3     1.080141702164   121.49951847   180.00000000
 H      2   1   3     1.080141676059   121.49952439     0.00000000
 H      1   2   3     1.080141744590   121.49953386   180.00000000

---------------------------
INTERNAL COORDINATES (A.U.)
---------------------------
 C      0   0   0     0.000000000000     0.00000000     0.00000000
 C      1   0   0     2.516928294228     0.00000000     0.00000000
 H      1   2   0     2.041172117160   121.49953512     0.00000000
 H      2   1   3     2.041172002918   121.49951847   180.00000000
 H      2   1   3     2.041171953585   121.49952439     0.00000000
 H      1   2   3     2.041172083092   121.49953386   180.00000000



           ************************************************************
           *        Program running with 8 parallel MPI-processes     *
           *              working on a common directory               *
           ************************************************************
------------------------------------------------------------------------------
                   ___                                                        
                  /   \      - P O W E R E D   B Y -                         
                 /     \                                                     
                 |  |  |   _    _      __       _____    __    __             
                 |  |  |  | |  | |    /  \     |  _  \  |  |  /  |          
                  \  \/   | |  | |   /    \    | | | |  |  | /  /          
                 / \  \   | |__| |  /  /\  \   | |_| |  |  |/  /          
                |  |  |   |  __  | /  /__\  \  |    /   |      \           
                |  |  |   | |  | | |   __   |  |    \   |  |\   \          
                \     /   | |  | | |  |  |  |  | |\  \  |  | \   \       
                 \___/    |_|  |_| |__|  |__|  |_| \__\ |__|  \__/        
                                                                              
                      - O R C A' S   B I G   F R I E N D -                    
                                      &                                       
                       - I N T E G R A L  F E E D E R -                       
                                                                              
 v1 FN, 2020, v2 2021, v3 2022-2024                                           
------------------------------------------------------------------------------


----------------------
SHARK INTEGRAL PACKAGE
----------------------

Number of atoms                             ...      6
Number of basis functions                   ...    128
Number of shells                            ...     56
Maximum angular momentum                    ...      3
Integral batch strategy                     ... SHARK/LIBINT Hybrid
RI-J (if used) integral strategy            ... SPLIT-RIJ (Revised 2003 algorithm where possible)
Printlevel                                  ...      1
Contraction scheme used                     ... PARTIAL GENERAL contraction
Prescreening option                         ... SCHWARTZ
   Thresh                                   ... 2.500e-11
   Tcut                                     ... 2.500e-12
   Tpresel                                  ... 2.500e-12 
Coulomb Range Separation                    ... NOT USED
Exchange Range Separation                   ... NOT USED
Multipole approximations                    ... NOT USED
Finite Nucleus Model                        ... NOT USED
CABS basis                                  ... NOT available
Auxiliary Coulomb fitting basis             ... NOT available
Auxiliary J/K fitting basis                 ... NOT available
Auxiliary Correlation fitting basis         ... NOT available
Auxiliary 'external' fitting basis          ... NOT available

Checking pre-screening integrals            ... done (  0.0 sec) Dimension = 56
Save PGC pre-screening integrals            ... done (  0.0 sec) Dimension = 56
Calculate PGC overlap integrals             ... done (  0.0 sec) Dimension = 44
Calculating pre-screening integrals (ORCA)  ... done (  0.0 sec) Dimension = 44
Check shell pair data                       ... done (  0.0 sec)
Shell pair information
Shell pair cut-off parameter TPreSel        ...   2.5e-12
Total number of shell pairs                 ...      1596
Shell pairs after pre-screening             ...      1560
Total number of primitive shell pairs       ...      2364
Primitive shell pairs kept                  ...      2167
          la=0 lb=0:    492 shell pairs
          la=1 lb=0:    448 shell pairs
          la=1 lb=1:    105 shell pairs
          la=2 lb=0:    256 shell pairs
          la=2 lb=1:    112 shell pairs
          la=2 lb=2:     36 shell pairs
          la=3 lb=0:     64 shell pairs
          la=3 lb=1:     28 shell pairs
          la=3 lb=2:     16 shell pairs
          la=3 lb=3:      3 shell pairs

Calculating one electron integrals          ... done (  0.0 sec)
Calculating Nuclear repulsion               ... done (  0.0 sec) ENN=     33.434669829405 Eh

Diagonalization of the overlap matrix:
Smallest eigenvalue                        ... 7.139e-04
Time for diagonalization                   ...    0.001 sec
Threshold for overlap eigenvalues          ... 1.000e-07
Number of eigenvalues below threshold      ... 0
Time for construction of square roots      ...    0.001 sec
Total time needed                          ...    0.003 sec

-------------------
DFT GRID GENERATION
-------------------

General Integration Accuracy     IntAcc      ... 4.388
Radial Grid Type                 RadialGrid  ... OptM3 with GC (2021)
Angular Grid (max. ang.)         AngularGrid ... 4 (Lebedev-302)
Angular grid pruning method      GridPruning ... 4 (adaptive)
Weight generation scheme         WeightScheme... mBecke (2022)
Basis function cutoff            BFCut       ... 1.0000e-11
Integration weight cutoff        WCut        ... 1.0000e-14
Partially contracted basis set               ... off
Rotationally invariant grid construction     ... off
Angular grids for H and He will be reduced by one unit

Total number of grid points                  ...    25284
Total number of batches                      ...      398
Average number of points per batch           ...       63
Average number of grid points per atom       ...     4214

---------------------
SHARK GRID GENERATION
---------------------

General Integration Accuracy     IntAcc      ... 4.388
Radial Grid Type                 RadialGrid  ... OptM3 with GC (2021)
Angular Grid (max. ang.)         AngularGrid ... 4 (Lebedev-302)
Angular grid pruning method      GridPruning ... 4 (adaptive)
Weight generation scheme         WeightScheme... mBecke (2022)
[...]
           *              working on a common directory               *
           ************************************************************

-------------------------------------------------------------------------------------------
                                      ORCA LEAN-SCF
                              memory conserving SCF solver
-------------------------------------------------------------------------------------------

----------------------------------------D-I-I-S--------------------------------------------
Iteration    Energy (Eh)           Delta-E    RMSDP     MaxDP     DIISErr   Damp  Time(sec)
-------------------------------------------------------------------------------------------
               ***  Starting incremental Fock matrix formation  ***
                              *** Initializing SOSCF ***
---------------------------------------S-O-S-C-F--------------------------------------
Iteration    Energy (Eh)           Delta-E    RMSDP     MaxDP     MaxGrad    Time(sec)
--------------------------------------------------------------------------------------
    1    -78.0638967667825625     0.00e+00  1.02e-06  2.70e-05  4.33e-06     0.1
               *** Restarting incremental Fock matrix formation ***
    2    -78.0638967721282597    -5.35e-09  3.44e-07  4.45e-06  7.50e-06     0.1
    3    -78.0638967729356636    -8.07e-10  1.85e-07  3.55e-06  3.38e-06     0.1
                 **** Energy Check signals convergence ****

               *****************************************************
               *                     SUCCESS                       *
               *           SCF CONVERGED AFTER   3 CYCLES          *
               *****************************************************

             **** ENERGY FILE WAS UPDATED (orca.en.tmp) ****

----------------
TOTAL SCF ENERGY
----------------

Total Energy       :        -78.06389677293566 Eh           -2124.22662 eV

Components:
Nuclear Repulsion  :         33.43360536096481 Eh             909.77465 eV
Electronic Energy  :       -111.49750213390047 Eh           -3034.00128 eV
One Electron Energy:       -170.20505804812962 Eh           -4631.51509 eV
Two Electron Energy:         58.70755591422915 Eh            1597.51381 eV

Virial components:
Potential Energy   :       -156.00988974771121 Eh           -4245.24492 eV
Kinetic Energy     :         77.94599297477555 Eh            2121.01830 eV
Virial Ratio       :          2.00151263450064

---------------
SCF CONVERGENCE
---------------

  Last Energy change         ...    8.0740e-10  Tolerance :   1.0000e-08
  Last MAX-Density change    ...    3.5465e-06  Tolerance :   1.0000e-07
  Last RMS-Density change    ...    1.8498e-07  Tolerance :   5.0000e-09
  Last DIIS Error            ...    3.0795e-05  Tolerance :   5.0000e-07
  Last Orbital Gradient      ...    3.3776e-06  Tolerance :   1.0000e-05
  Last Orbital Rotation      ...    6.0308e-06  Tolerance :   1.0000e-05


----------------
ORBITAL ENERGIES
----------------

  NO   OCC          E(Eh)            E(eV) 
   0   2.0000     -11.228960      -305.5555 
   1   2.0000     -11.227237      -305.5086 
   2   2.0000      -1.033153       -28.1135 
   3   2.0000      -0.792123       -21.5548 
   4   2.0000      -0.643608       -17.5135 
   5   2.0000      -0.586221       -15.9519 
   6   2.0000      -0.507259       -13.8032 
   7   2.0000      -0.376413       -10.2427 
   8   0.0000       0.152212         4.1419 
   9   0.0000       0.159215         4.3325 
  10   0.0000       0.187509         5.1024 
  11   0.0000       0.190832         5.1928 
  12   0.0000       0.241130         6.5615 
  13   0.0000       0.367593        10.0027 
  14   0.0000       0.373387        10.1604 
  15   0.0000       0.442032        12.0283 
  16   0.0000       0.446697        12.1552 
  17   0.0000       0.486400        13.2356 
  18   0.0000       0.565583        15.3903 
*Only the first 10 virtual orbitals were printed.
-------
TIMINGS
-------

Total SCF time: 0 days 0 hours 0 min 0 sec 

Total time                  ....       0.350 sec
Sum of individual times     ....       0.346 sec  ( 98.6%)

SCF preparation             ....       0.046 sec  ( 13.2%)
Fock matrix formation       ....       0.227 sec  ( 64.6%)
  Startup                   ....       0.005 sec  (  2.0% of F)
  Coulomb+Exchange Fock     ....       0.218 sec  ( 96.0% of F)
Diagonalization             ....       0.000 sec  (  0.0%)
Density matrix formation    ....       0.014 sec  (  4.0%)
Total Energy calculation    ....       0.005 sec  (  1.5%)
Population analysis         ....       0.000 sec  (  0.0%)
Orbital Transformation      ....       0.015 sec  (  4.2%)
Orbital Orthonormalization  ....       0.000 sec  (  0.0%)
DIIS solution               ....       0.008 sec  (  2.3%)
SOSCF solution              ....       0.030 sec  (  8.5%)
Finished LeanSCF after   0.4 sec

Maximum memory used throughout the entire LEANSCF-calculation: 11.6 MB


           ************************************************************
           *        Program running with 8 parallel MPI-processes     *
           *              working on a common directory               *
           ************************************************************

------------------------------------------------------------------------------
                                ORCA  MP2 
------------------------------------------------------------------------------

NOTE: Switching SHARK to Segmented Contraction for MP2
      If that is not desired please turn off the PGCFlag in the input (%shark PGCFlag 0 end)
      Number of basis functions in BAS before restore: 128
      Number of basis functions in BAS after restore : 116
Freezing NCore=4 chemical core electrons
MP2 will be done in the AO integral direct mode
The Q1-step will be done using symmetric double matrices
Dimension of the basis                    ...  116
Memory devoted for MP2                    ... 4096 MB   
Memory needed for all in one shot         ...    7 MB
Number of MOs that can be treated together...  681      
MP2 density construction                  ... relaxed
The MP2 gradient is requested => amplitudes will be stored on disk
Total number of MOs              ...    6
Number of MOs treated per batch  ...    1 
Number of batches necessary      ...    1 
OPERATORS   0/  0 PASS   4
OPERATORS   0/  0 PASS   3
OPERATORS   0/  0 PASS   2
OPERATORS   0/  0 PASS   0
OPERATORS   0/  0 PASS   1
OPERATORS   0/  0 PASS   5
-----------------------------------------------
 MP2 CORRELATION ENERGY   :     -0.335409607 Eh
-----------------------------------------------


---------------------
MP2 DENSITY FORMATION
---------------------

Completing the external part of the density      ... done
Storing the unrelaxed density                    ... done

Calculating G(D)                                 ... done
Completing the Lagrangian                        ... done
Solving the Z-vector equations                   ... 
-------------------
SHARK CP-SCF DRIVER
-------------------

Dimension of the orbital basis          ...    116
Dimension of the CPSCF-problem          ...    864
Number of operators                     ...      1
Max. number of iterations               ...    128
Convergence Tolerance                   ... 1.0e-04
Number of perturbations                 ...      1
Perturbation type                       ... REAL

----------------------------
POPLE LINEAR EQUATION SOLVER
----------------------------

  ITERATION   0:   ||err||_max =   3.7336e-02 (   0.1 sec)
  ITERATION   1:   ||err||_max =   6.5766e-03 (   0.1 sec)
  ITERATION   2:   ||err||_max =   1.1317e-03 (   0.1 sec)
  ITERATION   3:   ||err||_max =   1.9328e-04 (   0.1 sec)
  ITERATION   4:   ||err||_max =   2.3167e-05 (   0.1 sec)
                                                 ... done
Finalizing the relaxed density                   ... done
Transforming P to the AO basis                   ... done
Storing the relaxed density                      ... done

------------------------------------
ENERGY WEIGHTED DENSITY FINALIZATION
------------------------------------

Gathering the parts of the W-matrix              ...                                                      done
Forming the Z-density                            ... done
Transforming Z to the AO basis                   ... done
Calculating G(Z)                                 ... done
Finalizing the W-matrix                          ...                                                      done
Transforming W to the AO basis and storing       ... done

----------------------------------
MP2 DERIVATIVE INTEGRAL GENERATION
----------------------------------

Input SCF Electron Density              ... orca.scfp
Input Correlated Electron Density       ... orca.pmp2re
Input Energy Weighted Density           ... orca.wmp2.tmp
Input Wavefunction Amplitudes           ... orca.mp2tsaa.tmp

Nuclear repulsion gradient              ... done (  0.0 sec)
HCore & Overlap gradient  (SHARK)       ... done (  0.0 sec)
Analytic two-electron gradient terms    ... 
  Batch handling in the gradient evaluation:
  General contraction                   ... not used
  Memory available                      ... 4089.4 MB
  Memory per occupied orbital in Q2     ...    0.6 MB
  Memory per occupied orbital in Q3     ...    0.0 MB
  Total memory requirement per |i>      ...    0.7 MB
  Number of orbitals treated per batch  ...      6
  Number of batches to be done          ...      1
done (  0.6 sec)

---------------------------------------
MP2 TOTAL ENERGY:      -78.399306380 Eh
---------------------------------------

The final MP2 gradient
  0:   0.00001614   0.00000003   0.00000000
  1:  -0.00001614  -0.00000001  -0.00000000
  2:  -0.00000154   0.00000080   0.00000000
  3:   0.00000152  -0.00000081  -0.00000000
  4:   0.00000151   0.00000084  -0.00000000
  5:  -0.00000149  -0.00000084   0.00000000

-----------------------------------
NORM OF THE MP2 GRADIENT:  0.000023
-----------------------------------

Maximum memory used throughout the entire MP2-calculation: 48.6 MB

-------------------------   --------------------
FINAL SINGLE POINT ENERGY       -78.399306379957
-------------------------   --------------------

                                *** OPTIMIZATION RUN DONE ***



           ************************************************************
           *        Program running with 8 parallel MPI-processes     *
           *              working on a common directory               *
           ************************************************************

------------------------------------------------------------------------------
                              ORCA PROPERTY CALCULATIONS
------------------------------------------------------------------------------

GBWName                                 ... orca.gbw
Number of atoms                         ...      6
Number of basis functions               ...    128
Max core memory                         ...   1024 MB

Electric properties:
Dipole moment                           ... YES
Quadrupole moment                       ...  NO
Static polarizability (Dipole/Dipole)   ...  NO
Static polarizability (Dipole/Quad.)    ...  NO
Static polarizability (Quad./Quad.)     ...  NO
Static polarizability (Velocity)        ...  NO

Atomic electric properties:
Dipole moment                           ...  NO
Quadrupole moment                       ...  NO
Static polarizability                   ...  NO

Choice of electric origin               ... Center of mass
Position of electric origin             ...    -0.000000     0.000000    -0.000000

General magnetic properties:
Magnetizability                         ...  NO

EPR properties:
g-Tensor (aka g-matrix)                 ...  NO
Zero-Field splitting spin-orbit         ...  NO
Zero-field splitting spin-spin          ...  NO
Hyperfine couplings                     ...  NO (   0 nuclei)
Quadrupole couplings                    ...  NO (   0 nuclei)
Contact density                         ...  NO (   0 nuclei)

NMR properties:
Chemical shifts                         ...  NO (   0 nuclei)
Spin-rotation constants                 ...  NO (   0 nuclei)
Spin-spin couplings                     ...  NO (   0 nuclei,    0 pairs)

Choice of magnetic origin               ... GIAO
Position of magnetic origin             ...     0.000000     0.000000     0.000000

Properties with geometric perturbations:
SCF Hessian                             ...  NO
IR spectrum                             ...  NO
VCD spectrum                            ...  NO
X-ray spectroscopy properties:
SCF XES/XAS/RIXS spectra                ...  NO


-------------
DIPOLE MOMENT
-------------

Method             : SCF
Type of density    : Electron Density
Multiplicity       :   1
Irrep              :   0
Energy             :   -78.0638967729356636 Eh
Relativity type    : 
Basis              : AO
                                X                 Y                 Z
Electronic contribution:     -0.000000023       0.000000003      -0.000000000
Nuclear contribution   :      0.000000018      -0.000000007       0.000000000
                        -----------------------------------------
Total Dipole Moment    :     -0.000000005      -0.000000004       0.000000000
                        -----------------------------------------
Magnitude (a.u.)       :      0.000000007
Magnitude (Debye)      :      0.000000017



--------------------
Rotational spectrum 
--------------------
 
Rotational constants in cm-1:             4.909538             1.007321             0.835829 
Rotational constants in MHz :        147184.243121         30198.723516         25057.514530 

Dipole components along the rotational axes: 
x,y,z [a.u.] :    -0.000000     0.000000     0.000000 
x,y,z [Debye]:    -0.000000     0.000000     0.000000 

 

-------------
DIPOLE MOMENT
-------------

Method             : MP2
Type of density    : Electron Density
Multiplicity       :   1
Level              : Unrelaxed density
Irrep              :   0
Energy             :     0.0000000000000000 Eh
Relativity type    : 
Basis              : AO
                                X                 Y                 Z
Electronic contribution:     -0.000000023       0.000000003      -0.000000000
Nuclear contribution   :      0.000000018      -0.000000007       0.000000000
                        -----------------------------------------
Total Dipole Moment    :     -0.000000005      -0.000000004       0.000000000
                        -----------------------------------------
Magnitude (a.u.)       :      0.000000007
Magnitude (Debye)      :      0.000000017



--------------------
Rotational spectrum 
--------------------
 
Rotational constants in cm-1:             4.909538             1.007321             0.835829 
Rotational constants in MHz :        147184.243121         30198.723516         25057.514530 

Dipole components along the rotational axes: 
x,y,z [a.u.] :    -0.000000     0.000000     0.000000 
x,y,z [Debye]:    -0.000000     0.000000     0.000000 

 

-------------
DIPOLE MOMENT
-------------

Method             : MP2
Type of density    : Electron Density
Multiplicity       :   1
Level              : Relaxed density
Irrep              :   0
Energy             :     0.0000000000000000 Eh
Relativity type    : 
Basis              : AO
                                X                 Y                 Z
Electronic contribution:     -0.000000023       0.000000002      -0.000000000
Nuclear contribution   :      0.000000018      -0.000000007       0.000000000
                        -----------------------------------------
Total Dipole Moment    :     -0.000000005      -0.000000005       0.000000000
                        -----------------------------------------
Magnitude (a.u.)       :      0.000000007
Magnitude (Debye)      :      0.000000018



--------------------
Rotational spectrum 
--------------------
 
Rotational constants in cm-1:             4.909538             1.007321             0.835829 
Rotational constants in MHz :        147184.243121         30198.723516         25057.514530 

Dipole components along the rotational axes: 
x,y,z [a.u.] :    -0.000000     0.000000     0.000000 
x,y,z [Debye]:    -0.000000     0.000000     0.000000 

 

Dipole moment calculation done in   0.1 sec 

Maximum memory used throughout the entire PROP-calculation: 4.2 MB

--------------------------------
SUGGESTED CITATIONS FOR THIS RUN
--------------------------------

Below you find a list of papers that are relevant to this ORCA run
We neither can nor want to force you to cite these papers, but we appreciate if you do
You receive ORCA, which is the product of decades of hard work by many enthusiastic individuals, for free
The only thing we kindly ask in return is that you cite our papers,
We deeply appreciate it, if you show your appreciation for ORCA by not just citing the generic ORCA reference.

Please note that relegating all ORCA citations to the supporting information does *not* help us.
SI sections are not indexed - citations you put there will not count into any citation statistics
But we need these citations in order to attract the funding resources that allow us to do what we are doing

Therefore, if you are a happy ORCA user, please consider citing a few of the papers listed below in the main body of your paper

In addition to the list printed below, the program has created the file orca.bibtex that contains the list in bibtex format
You can import this file easily into all common literature databanks and citation aid programs


List of essential papers. We consider these as the minimum necessary citations

  1. Neese,F.
     Software update: the ORCA program system, version 5.0
     WIRES Comput. Molec. Sci., 2022 12(1)e1606
     doi.org/10.1002/wcms.1606

List of papers to cite with high priority. The work reported in these papers was absolutely
necessary for this run to complete.
Our perspective: the developers of density functionals and basis sets usually get cited in chemistry papers
Good! But without the algorithms to do something with them, the functionals or basis sets would not do anything.
Hence, in our opinion, the algorithm design and method developments papers are equally worthy of getting cited

  1. Neese,F.
     The SHARK Integral Generation and Digestion System
     J. Comp. Chem., 2022  1-16
     doi.org/10.1002/jcc.26942

List of suggested additional citations. These are papers that are important in the 'surrounding' of 
of this run, or papers that preceded the highly important papers. If you like your results we are grateful for a citation.

  1. Neese,F.
     The ORCA program system
     WIRES Comput. Molec. Sci., 2012 2(1)73-78
     doi.org/10.1002/wcms.81
  2. Neese,F.
     Software update: the ORCA program system, version 4.0
     WIRES Comput. Molec. Sci., 2018 8(1)1-6
     doi.org/10.1002/wcms.1327
  3. Neese,F.; Wennmohs,F.; Becker,U.; Riplinger,C.
     The ORCA quantum chemistry program package
     J. Chem. Phys., 2020 152 Art. No. L224108
     doi.org/10.1063/5.0004608

List of optional additional citations

  1. Neese,F.
     Approximate second-order SCF convergence for spin unrestricted wavefunctions
     Chem. Phys. Lett., 2000 325(1-3)93-98
     doi.org/10.1016/s0009-2614(00)00662-x

Timings for individual modules:

Sum of individual times          ...       23.001 sec (=   0.383 min)
Startup calculation              ...        3.271 sec (=   0.055 min)  14.2 %
SCF iterations                   ...        5.639 sec (=   0.094 min)  24.5 %
Property calculations            ...        0.374 sec (=   0.006 min)   1.6 %
MP2 module                       ...       13.709 sec (=   0.228 min)  59.6 %
Geometry relaxation              ...        0.008 sec (=   0.000 min)   0.0 %
                             ****ORCA TERMINATED NORMALLY****
TOTAL RUN TIME: 0 days 0 hours 0 minutes 24 seconds 244 msec
