
                                 *****************
                                 * O   R   C   A *
                                 *****************

                                            #,                                       
                                            ###                                      
                                            ####                                     
                                            #####                                    
                                            ######                                   
                                           ########,                                 
                                     ,,################,,,,,                         
                               ,,#################################,,                 
                          ,,##########################################,,             
                       ,#########################################, ''#####,          
                    ,#############################################,,   '####,        
                  ,##################################################,,,,####,       
                ,###########''''           ''''###############################       
              ,#####''   ,,,,##########,,,,          '''####'''          '####       
            ,##' ,,,,###########################,,,                        '##       
           ' ,,###''''                  '''############,,,                           
         ,,##''                                '''############,,,,        ,,,,,,###''
      ,#''                                            '''#######################'''  
     '                                                          ''''####''''         
             ,#######,   #######,   ,#######,      ##                                
            ,#'     '#,  ##    ##  ,#'     '#,    #''#        ,####,   ,####,        
            ##       ##  ##   ,#'  ##            #'  '#       #'       #'  '#        
            ##       ##  #######   ##           ,######,      #####,   #    #        
            '#,     ,#'  ##    ##  '#,     ,#' ,#      #,     #,   #   #,  ,#        
             '#######'   ##     ##  '#######'  #'      '#     '####' # '####'        



                #########################################################
                #                        -***-                          #
                #          Department of theory and spectroscopy        #
                #                                                       #
                #                      Frank Neese                      #
                #                                                       #
                #     Directorship, Architecture, Infrastructure        #
                #                    SHARK, DRIVERS                     #
                #        Core code/Algorithms in most modules           #
                #                                                       #
                #        Max Planck Institute fuer Kohlenforschung      #
                #                Kaiser Wilhelm Platz 1                 #
                #                 D-45470 Muelheim/Ruhr                 #
                #                      Germany                          #
                #                                                       #
                #                  All rights reserved                  #
                #                        -***-                          #
                #########################################################


                         Program Version 6.0.1  -  RELEASE   -


 With contributions from (in alphabetic order):
[Max-Planck-Institut fuer Kohlenforschung]                               
  Daniel Aravena         : Magnetic Suceptibility                        
  Michael Atanasov       : Ab Initio Ligand Field Theory (pilot matlab implementation)
  Alexander A. Auer      : GIAO ZORA, VPT2 properties, NMR spectrum      
  Ute Becker             : All parallelization in ORCA, NUMFREQ, NUMCALC 
  Giovanni Bistoni       : ED, misc. LED, open-shell LED, HFLD           
  Martin Brehm           : Molecular dynamics                            
  Dmytro Bykov           : pre 5.0 version of the SCF Hessian            
  Marcos Casanova-Páez   : Triplet and SCS-CIS(D). UHF-(DLPNO)-IP/EA/STEOM-CCSD. UHF-CVS-IP/STEOM-CCSD   
  Vijay G. Chilkuri      : MRCI spin determinant printing, contributions to CSF-ICE 
  Pauline Colinet        : FMM embedding                                 
  Dipayan Datta          : RHF DLPNO-CCSD density                        
  Achintya Kumar Dutta   : EOM-CC, STEOM-CC                              
  Nicolas Foglia         : Exact transition moments, OPA infrastructure, MCD improvements    
  Dmitry Ganyushin       : Spin-Orbit,Spin-Spin,Magnetic field MRCI      
  Miquel Garcia-Rates    : C-PCM and meta-GGA Hessian, CCSD/C-PCM, Gaussian charge scheme 
  Tiago L. C. Gouveia    : GS-ROHF, GS-ROCIS                             
  Yang Guo               : DLPNO-NEVPT2, F12-NEVPT2, CIM, IAO-localization        
  Andreas Hansen         : Spin unrestricted coupled pair/coupled cluster methods 
  Ingolf Harden          : AUTO-CI MPn and infrastructure                
  Benjamin Helmich-Paris : MC-RPA, TRAH-(SCF,CASSCF), AVAS, COSX integrals, SCF dyn. polar. 
  Lee Huntington         : MR-EOM, pCC                                   
  Robert Izsak           : Overlap fitted RIJCOSX, COSX-SCS-MP3, EOM     
  Riya Kayal             : Wick's Theorem for AUTO-CI, AUTO-CI UHF-CCSDT 
  Emily Kempfer          : AUTO-CI, RHF CISDT and CCSDT                  
  Christian Kollmar      : KDIIS, OOCD, Brueckner-CCSD(T), CCSD density, CASPT2, CASPT2-K, improved NEVPT2 
  Axel Koslowski         : Symmetry handling                             
  Simone Kossmann        : meta-GGA functionals, TD-DFT gradient, OOMP2, (MP2 Hessian; deprecated post 5.0) 
  Lucas Lang             : DCDCAS                                        
  Marvin Lechner         : AUTO-CI (C++ implementation), FIC-MRCC        
  Spencer Leger          : CASSCF response                               
  Dagmar Lenk            : GEPOL surface, SMD, ORCA-2-JSON               
  Dimitrios Liakos       : Extrapolation schemes; Compound Job, initial MDCI parallelization 
  Dimitrios Manganas     : Further ROCIS development; embedding schemes. LFT, Crystal Embedding 
  Dimitrios Pantazis     : SARC Basis sets                               
  Anastasios Papadopoulos: AUTO-CI, single reference methods and gradients 
  Taras Petrenko         : pre 6.0 DFT Hessian and TD-DFT gradient, (ASA, deprecated), ECA, 1-Electron XAS/XES, NRVS 
  Peter Pinski           : DLPNO-MP2, DLPNO-MP2 Gradient                 
  Christoph Reimann      : Effective Core Potentials                     
  Marius Retegan         : Local ZFS, SOC                                
  Christoph Riplinger    : Optimizer, TS searches, QM/MM, DLPNO-CCSD(T), (RO)-DLPNO pert. Triples 
  Michael Roemelt        : Original ROCIS implementation                 
  Masaaki Saitow         : Open-shell DLPNO-CCSD energy and density      
  Barbara Sandhoefer     : DKH picture change effects                    
  Kantharuban Sivalingam : CASSCF convergence/infrastructure, NEVPT2 and variants, FIC-MRCI 
  Bernardo de Souza      : ESD, SOC TD-DFT                               
  Georgi L. Stoychev     : AutoAux, RI-MP2 NMR, DLPNO-MP2 response, X2C  
  Van Anh Tran           : RI-MP2 g-tensors                              
  Willem Van den Heuvel  : Paramagnetic NMR                              
  Zikuan Wang            : NOTCH, Electric field optimization            
  Frank Wennmohs         : Technical directorship and infrastructure     
  Hang Xu                : AUTO-CI-Response properties                   
                                                                         
[FACCTs GmbH]                                                            
  Markus Bursch, Miquel Garcia-Rates, Christoph Riplinger, Bernardo de Souza, Georgi L. Stoychev 
                                                                 
  APM, Basis sets (HGBS, AHGBS, def-TZVP (Ac-Lr), def2-XVPD (La-Lu)), CI-OPT, improved COSX, DLPNO-Multilevel,           
  DOCKER, DRACO, updates on ESD, GOAT, IRC, LR-CPCM, MBIS, meta-GGA TD-DFT gradient, ML-optimized integration grids, 
  MM, NACMEs, nearIR, NEB, NEB-TS, NL-DFT gradient (VV10), 2- and 3-layer-ONIOM, interface openCOSMO-RS, QMMM,   
  Crystal-QMMM, SF, symmetry and pop. for TD-DFT, r2SCAN hybrids, SOLVATOR                                   
                                                                         
[Other institutions]                                                     
  V. Asgeirsson          : NEB                                           
  Christoph Bannwarth    : sTDA-DFT, sTD-DFT, PBEh-3c, B97-3c, D3        
  Sebastian Ehlert       : rSCAN, r2SCAN, r2SCAN-3c, D4, dhf basis sets  
  Marvin Friede          : D4 for Fr, Ra, Ac-Lr                          
  Lars Goerigk           : TD-DFT with DH, B97 family of functionals     
  Stefan Grimme          : VdW corrections, initial TS optimization, DFT functionals, gCP, sTDA/sTD-DF 
  Waldemar Hujo          : DFT-NL                                        
  H. Jonsson             : NEB                                           
  Holger Kruse           : gCP                                           
  Marcel Mueller         : wB97X-3c, vDZP basis set                      
  Hagen Neugebauer       : wr2SCAN                                       
  Tobias Risthaus        : range-separated hybrid DFT                    
  Lukas Wittmann         : regularized MP2, r2SCAN double-hybrids, wr2SCAN        
                                                                         
We gratefully acknowledge several colleagues who have allowed us to      
interface, adapt or use parts of their codes:                            
  Ed Valeev, F. Pavosevic, A. Kumar             : LibInt (2-el integral package), F12 methods 
  Garnet Chan, S. Sharma, J. Yang, R. Olivares  : DMRG                   
  Ulf Ekstrom                                   : XCFun DFT Library      
  Mihaly Kallay                                 : mrcc  (arbitrary order and MRCC methods)
  Frank Weinhold                                : gennbo (NPA and NBO analysis)           
  Simon Mueller                                 : openCOSMO-RS                            
  Christopher J. Cramer and Donald G. Truhlar   : smd solvation model                     
  S Lehtola, MJT Oliveira, MAL Marques          : LibXC Library                           
  Liviu Ungur et al                             : ANISO software                          


 Your calculation uses the libint2 library for the computation of 2-el integrals
 For citations please refer to: http://libint.valeyev.net

 Your ORCA version has been built with support for libXC version: 6.2.2
 For citations please refer to: https://libxc.gitlab.io

 This ORCA versions uses:
   CBLAS   interface :  Fast vector & matrix operations
   LAPACKE interface :  Fast linear algebra routines
   SCALAPACK package :  Parallel linear algebra routines
   Shared memory     :  Shared parallel matrices


Reading of a custom orbital basis requested
Basis file: /Users/johannes/Documents/Uni/BasisSets/cc-pvtz.bas
Basis read successfully!



***************************************
The coordinates will be read from file: anthracene_opt_MP2_cc-pvtz.xyz
***************************************


================================================================================

----- Orbital basis set information -----
Basis read from file: /Users/johannes/Documents/Uni/BasisSets/cc-pvtz.bas

================================================================================
                                        WARNINGS
                       Please study these warnings very carefully!
================================================================================

WARNING: Old DensityContainer found on disk!
         Will remove this file - 
         If you want to keep old densities, please start your calculation with a different basename. 


IMPORTANT NOTE: CASSCF must signal convergence for a subsequent CASPT2/NEVPT2! 
                Set maxiter=1 to run CASPT2/NEVPT2 with arbitrary orbitals.


================================================================================
                                       INPUT FILE
================================================================================
NAME = orca.inp
|  1> ! PAL8 nopop tightscf printmos RHF
|  2> %basis
|  3> GTOName = "/Users/johannes/Documents/Uni/BasisSets/cc-pvtz.bas"
|  4> end
|  5> %CASSCF
|  6> nel 2
|  7> norb 2
|  8> PTmethod sc_NEVPT2
|  9> nroots 3
| 10> end
| 11> * xyzfile 0 1 anthracene_opt_MP2_cc-pvtz.xyz
| 12> 
| 13>                          ****END OF INPUT****
================================================================================

                       ****************************
                       * Single Point Calculation *
                       ****************************

---------------------------------
CARTESIAN COORDINATES (ANGSTROEM)
---------------------------------
  C     -3.648732    0.709060   -0.000000
  C     -2.465580    1.404281   -0.000000
  C     -1.219771    0.720035    0.000000
  C     -1.219771   -0.720035    0.000000
  C     -2.465580   -1.404281    0.000000
  C     -3.648732   -0.709060   -0.000000
  C      0.000000    1.403583    0.000000
  C      1.219771    0.720035    0.000000
  C     -0.000000   -1.403583    0.000000
  C      1.219771   -0.720035    0.000000
  C      2.465580    1.404281    0.000000
  C      3.648732    0.709060   -0.000000
  C      3.648732   -0.709060   -0.000000
  C      2.465580   -1.404281   -0.000000
  H     -4.588790    1.244069   -0.000000
  H     -2.464790    2.487506   -0.000000
  H     -2.464791   -2.487506    0.000000
  H     -4.588790   -1.244069   -0.000000
  H     -0.000000    2.488463    0.000000
  H     -0.000000   -2.488464    0.000000
  H      2.464790    2.487506    0.000000
  H      4.588790    1.244069   -0.000000
  H      4.588790   -1.244069   -0.000000
  H      2.464791   -2.487506   -0.000000

----------------------------
CARTESIAN COORDINATES (A.U.)
----------------------------
  NO LB      ZA    FRAG     MASS         X           Y           Z
   0 C     6.0000    0    12.011   -6.895104    1.339930   -0.000000
   1 C     6.0000    0    12.011   -4.659270    2.653706   -0.000000
   2 C     6.0000    0    12.011   -2.305033    1.360668    0.000000
   3 C     6.0000    0    12.011   -2.305033   -1.360668    0.000000
   4 C     6.0000    0    12.011   -4.659271   -2.653706    0.000000
   5 C     6.0000    0    12.011   -6.895104   -1.339930   -0.000000
   6 C     6.0000    0    12.011    0.000000    2.652387    0.000000
   7 C     6.0000    0    12.011    2.305033    1.360668    0.000000
   8 C     6.0000    0    12.011   -0.000000   -2.652387    0.000000
   9 C     6.0000    0    12.011    2.305033   -1.360668    0.000000
  10 C     6.0000    0    12.011    4.659270    2.653706    0.000000
  11 C     6.0000    0    12.011    6.895104    1.339930   -0.000000
  12 C     6.0000    0    12.011    6.895104   -1.339930   -0.000000
  13 C     6.0000    0    12.011    4.659270   -2.653706   -0.000000
  14 H     1.0000    0     1.008   -8.671556    2.350950   -0.000001
  15 H     1.0000    0     1.008   -4.657778    4.700705   -0.000000
  16 H     1.0000    0     1.008   -4.657779   -4.700705    0.000000
  17 H     1.0000    0     1.008   -8.671556   -2.350949   -0.000000
  18 H     1.0000    0     1.008   -0.000000    4.702514    0.000000
  19 H     1.0000    0     1.008   -0.000000   -4.702515    0.000000
  20 H     1.0000    0     1.008    4.657779    4.700705    0.000000
  21 H     1.0000    0     1.008    8.671556    2.350950   -0.000000
  22 H     1.0000    0     1.008    8.671556   -2.350949   -0.000001
  23 H     1.0000    0     1.008    4.657779   -4.700705   -0.000000

--------------------------------
INTERNAL COORDINATES (ANGSTROEM)
--------------------------------
 C      0   0   0     0.000000000000     0.00000000     0.00000000
 C      1   0   0     1.372290189387     0.00000000     0.00000000
 C      2   1   0     1.421348765267   120.78422288     0.00000000
 C      3   2   1     1.440069230931   118.77727512     0.00000000
 C      4   3   2     1.421348842316   118.77727976     0.00000000
 C      5   4   3     1.372290196873   120.78422317     0.00000000
 C      3   2   1     1.398241305006   121.95686301   179.99999628
 C      7   3   2     1.398241253967   121.46828920   180.00001046
 C      4   3   2     1.398241289156   119.26585033   179.99998972
 C      9   4   3     1.398241336399   121.46828848     0.00000000
 C      8   7   3     1.421348728911   121.95686667   179.99999565
 C     11   8   7     1.372290142441   120.78422052   180.00000616
 C     12  11   8     1.418120522733   120.43849882     0.00000000
 C     13  12  11     1.372290153369   120.43850337     0.00000000
 H      1   2   3     1.081639131033   119.91629625   180.00000308
 H      2   1   3     1.083225616243   120.48025174   179.99999548
 H      5   4   3     1.083225617345   118.73553262   180.00000000
 H      6   5   4     1.081639103834   119.91630177   179.99999609
 H      7   3   2     1.084880885552   119.26585030     0.00000000
 H      9   4   3     1.084880969255   119.26584984   180.00000579
 H     11   8   7     1.083225590483   118.73553266     0.00000000
 H     12  11   8     1.081639106920   119.91629903   179.99999829
 H     13  12  11     1.081639079467   119.64520131   179.99999759
 H     14  13  12     1.083225613510   120.48024439   180.00000000

---------------------------
INTERNAL COORDINATES (A.U.)
---------------------------
 C      0   0   0     0.000000000000     0.00000000     0.00000000
 C      1   0   0     2.593252634209     0.00000000     0.00000000
 C      2   1   0     2.685959907141   120.78422288     0.00000000
 C      3   2   1     2.721336460346   118.77727512     0.00000000
 C      4   3   2     2.685960052743   118.77727976     0.00000000
 C      5   4   3     2.593252648355   120.78422317     0.00000000
 C      3   2   1     2.642293135598   121.95686301   179.99999628
 C      7   3   2     2.642293039148   121.46828920   180.00001046
 C      4   3   2     2.642293105646   119.26585033   179.99998972
 C      9   4   3     2.642293194922   121.46828848     0.00000000
 C      8   7   3     2.685959838439   121.95686667   179.99999565
 C     11   8   7     2.593252545494   120.78422052   180.00000616
 C     12  11   8     2.679859412858   120.43849882     0.00000000
 C     13  12  11     2.593252566145   120.43850337     0.00000000
 H      1   2   3     2.044001733386   119.91629625   180.00000308
 H      2   1   3     2.046999755947   120.48025174   179.99999548
 H      5   4   3     2.046999758031   118.73553262   180.00000000
 H      6   5   4     2.044001681987   119.91630177   179.99999609
 H      7   3   2     2.050127761619   119.26585030     0.00000000
 H      9   4   3     2.050127919794   119.26584984   180.00000579
 H     11   8   7     2.046999707268   118.73553266     0.00000000
 H     12  11   8     2.044001687819   119.91629903   179.99999829
 H     13  12  11     2.044001635939   119.64520131   179.99999759
 H     14  13  12     2.046999750783   120.48024439   180.00000000

---------------------
BASIS SET INFORMATION
---------------------
There are 2 groups of distinct atoms

 Group   1 Type C   : 22s7p2d1f contracted to 4s3p2d1f pattern {101011/511/11/1}
 Group   2 Type H   : 7s2p1d contracted to 3s2p1d pattern {511/11/1}

Atom   0C    basis set group =>   1
Atom   1C    basis set group =>   1
Atom   2C    basis set group =>   1
Atom   3C    basis set group =>   1
Atom   4C    basis set group =>   1
Atom   5C    basis set group =>   1
Atom   6C    basis set group =>   1
Atom   7C    basis set group =>   1
Atom   8C    basis set group =>   1
Atom   9C    basis set group =>   1
Atom  10C    basis set group =>   1
Atom  11C    basis set group =>   1
Atom  12C    basis set group =>   1
Atom  13C    basis set group =>   1
Atom  14H    basis set group =>   2
Atom  15H    basis set group =>   2
Atom  16H    basis set group =>   2
Atom  17H    basis set group =>   2
Atom  18H    basis set group =>   2
Atom  19H    basis set group =>   2
Atom  20H    basis set group =>   2
Atom  21H    basis set group =>   2
Atom  22H    basis set group =>   2
Atom  23H    basis set group =>   2

Checking for AutoStart:
The File: orca.gbw exists
Trying to determine its content:
     ... Fine, the file contains calculation information
     ... Fine, the calculation information was read
     ... Fine, the file contains a basis set
     ... Fine, the basis set was read
     ... Fine, the file contains a geometry
     ... Fine, the geometry was read
     ... Fine, the file contains a set of orbitals
     ... Fine, the orbitals can be read
     => possible old guess file was deleted
     => GBW file was renamed to GES file
     => GES file is set as startup file
     => Guess is set to MORead
     ... now leaving AutoStart



           ************************************************************
           *        Program running with 8 parallel MPI-processes     *
           *              working on a common directory               *
           ************************************************************
------------------------------------------------------------------------------
                             ORCA STARTUP CALCULATIONS
------------------------------------------------------------------------------
------------------------------------------------------------------------------
                   ___                                                        
                  /   \      - P O W E R E D   B Y -                         
                 /     \                                                     
                 |  |  |   _    _      __       _____    __    __             
                 |  |  |  | |  | |    /  \     |  _  \  |  |  /  |          
                  \  \/   | |  | |   /    \    | | | |  |  | /  /          
                 / \  \   | |__| |  /  /\  \   | |_| |  |  |/  /          
                |  |  |   |  __  | /  /__\  \  |    /   |      \           
                |  |  |   | |  | | |   __   |  |    \   |  |\   \          
                \     /   | |  | | |  |  |  |  | |\  \  |  | \   \       
                 \___/    |_|  |_| |__|  |__|  |_| \__\ |__|  \__/        
                                                                              
                      - O R C A' S   B I G   F R I E N D -                    
                                      &                                       
                       - I N T E G R A L  F E E D E R -                       
                                                                              
 v1 FN, 2020, v2 2021, v3 2022-2024                                           
------------------------------------------------------------------------------


----------------------
SHARK INTEGRAL PACKAGE
----------------------

Number of atoms                             ...     24
Number of basis functions                   ...    672
Number of shells                            ...    312
Maximum angular momentum                    ...      3
Integral batch strategy                     ... SHARK/LIBINT Hybrid
RI-J (if used) integral strategy            ... SPLIT-RIJ (Revised 2003 algorithm where possible)
Printlevel                                  ...      1
Contraction scheme used                     ... PARTIAL GENERAL contraction
Prescreening option                         ... SCHWARTZ
   Thresh                                   ... 2.500e-11
   Tcut                                     ... 2.500e-12
   Tpresel                                  ... 2.500e-12 
Coulomb Range Separation                    ... NOT USED
Exchange Range Separation                   ... NOT USED
Multipole approximations                    ... NOT USED
Finite Nucleus Model                        ... NOT USED
CABS basis                                  ... NOT available
Auxiliary Coulomb fitting basis             ... NOT available
Auxiliary J/K fitting basis                 ... NOT available
Auxiliary Correlation fitting basis         ... NOT available
Auxiliary 'external' fitting basis          ... NOT available

Checking pre-screening integrals            ... done (  0.0 sec) Dimension = 312
Save PGC pre-screening integrals            ... done (  0.0 sec) Dimension = 312
Calculate PGC overlap integrals             ... done (  0.0 sec) Dimension = 200
Calculating pre-screening integrals (ORCA)  ... done (  0.1 sec) Dimension = 200
Check shell pair data                       ... done (  0.0 sec)
Shell pair information
Shell pair cut-off parameter TPreSel        ...   2.5e-12
Total number of shell pairs                 ...     48828
Shell pairs after pre-screening             ...     36109
Total number of primitive shell pairs       ...     83676
Primitive shell pairs kept                  ...     56808
          la=0 lb=0:  12844 shell pairs
          la=1 lb=0:  10238 shell pairs
          la=1 lb=1:   1792 shell pairs
          la=2 lb=0:   5374 shell pairs
          la=2 lb=1:   2016 shell pairs
          la=2 lb=2:    554 shell pairs
          la=3 lb=0:   2028 shell pairs
          la=3 lb=1:    748 shell pairs
          la=3 lb=2:    424 shell pairs
          la=3 lb=3:     91 shell pairs

Calculating one electron integrals          ... done (  0.0 sec)
Calculating Nuclear repulsion               ... done (  0.0 sec) ENN=    767.676862851775 Eh

Diagonalization of the overlap matrix:
Smallest eigenvalue                        ... 1.281e-05
Time for diagonalization                   ...    0.018 sec
Threshold for overlap eigenvalues          ... 1.000e-07
Number of eigenvalues below threshold      ... 0
Time for construction of square roots      ...    0.004 sec
Total time needed                          ...    0.024 sec

-------------------
DFT GRID GENERATION
-------------------

General Integration Accuracy     IntAcc      ... 4.388
Radial Grid Type                 RadialGrid  ... OptM3 with GC (2021)
Angular Grid (max. ang.)         AngularGrid ... 4 (Lebedev-302)
Angular grid pruning method      GridPruning ... 4 (adaptive)
Weight generation scheme         WeightScheme... mBecke (2022)
Basis function cutoff            BFCut       ... 1.0000e-11
Integration weight cutoff        WCut        ... 1.0000e-14
Partially contracted basis set               ... off
Rotationally invariant grid construction     ... off
Angular grids for H and He will be reduced by one unit

Total number of grid points                  ...   115566
Total number of batches                      ...     1818
Average number of points per batch           ...       63
Average number of grid points per atom       ...     4815

---------------------
SHARK GRID GENERATION
---------------------

General Integration Accuracy     IntAcc      ... 4.388
Radial Grid Type                 RadialGrid  ... OptM3 with GC (2021)
Angular Grid (max. ang.)         AngularGrid ... 4 (Lebedev-302)
Angular grid pruning method      GridPruning ... 4 (adaptive)
Weight generation scheme         WeightScheme... mBecke (2022)
Basis function cutoff            BFCut       ... 1.0000e-11
Integration weight cutoff        WCut        ... 1.0000e-14
Partially contracted basis set               ... off
Rotationally invariant grid construction     ... off
Angular grids for H and He will be reduced by one unit
Steep s-basis detected: some atoms will have their radial
                        grid points doubled.

Total number of grid points                  ...   199872
Total number of batches                      ...     3134
Average number of points per batch           ...       63
Average number of grid points per atom       ...     8328
Initializing property integral containers    ... done (  0.0 sec)

SHARK setup successfully completed in   2.1 seconds

Maximum memory used throughout the entire STARTUP-calculation: 75.0 MB


           ************************************************************
           *        Program running with 8 parallel MPI-processes     *
           *              working on a common directory               *
           ************************************************************
-------------------------------------------------------------------------------
                                 ORCA GUESS
                   Start orbitals & Density for SCF / CASSCF
-------------------------------------------------------------------------------

------------
SCF SETTINGS
------------
Hamiltonian:
 Ab initio Hamiltonian  Method          .... Hartree-Fock(GTOs)


General Settings:
 Integral files         IntName         .... orca
 Hartree-Fock type      HFTyp           .... CASSCF
 Total Charge           Charge          ....    0
 Multiplicity           Mult            ....    1
 Number of Electrons    NEL             ....   94
 Basis Dimension        Dim             ....  560
 Nuclear Repulsion      ENuc            ....    767.6768628518 Eh

---------------------
INITIAL GUESS: MOREAD
---------------------
Guess MOs are being read from file: orca.ges
Input Geometry matches current geometry (good)
Input basis set matches current basis set (good)
Occupation numbers will be reassigned to an Aufbau configuration
MOs were renormalized
Gram-Schmidt orthogonalization of all MOs with pivot on actives
                      ------------------
                      INITIAL GUESS DONE (   0.6 sec)
                      ------------------
             **** ENERGY FILE WAS UPDATED (orca.en.tmp) ****
Finished Guess after   0.8 sec
Maximum memory used throughout the entire GUESS-calculation: 46.3 MB


           ************************************************************
           *        Program running with 8 parallel MPI-processes     *
           *              working on a common directory               *
           ************************************************************
-------------------------------------------------------------------------------
                              ORCA-CASSCF
-------------------------------------------------------------------------------

Building the CAS space              ... done (3 configurations for Mult=1)

 CASSCF (estimated) memory needed     ... 58.7 MB
 NEVPT2 (estimated) memory needed     ... 682.2 MB


SYSTEM-SPECIFIC SETTINGS:
Number of active electrons          ...    2
Number of active orbitals           ...    2
Total number of electrons           ...   94
Total number of orbitals            ...  560

Determined orbital ranges:
   Internal       0 -   45 (  46 orbitals)
   Active        46 -   47 (   2 orbitals)
   External      48 -  559 ( 512 orbitals)
Number of rotation parameters      ...  24668

CI-STEP:
CI strategy                         ... General CI
Number of multiplicity blocks       ...    1
BLOCK  0 WEIGHT=   1.0000
  Multiplicity                      ...    1
  #(Configurations)                 ...    3
  #(CSFs)                           ...    3
  #(Roots)                          ...    3
    ROOT=0 WEIGHT=    0.333333
    ROOT=1 WEIGHT=    0.333333
    ROOT=2 WEIGHT=    0.333333

  PrintLevel                        ...    1
  N(GuessMat)                       ...      2048
  MaxDim(CI)                        ...        10
  MaxIter(CI)                       ...        64
  Energy Tolerance CI               ...  2.50e-09
  Residual Tolerance CI             ...  2.50e-09
  Shift(CI)                         ...  1.00e-04

INTEGRAL-TRANSFORMATION-STEP:
  Algorithm                         ... EXACT

ORBITAL-IMPROVEMENT-STEP:
  Algorithm                         ... SuperCI(PT)
  Default Parametrization           ... CAYLEY
  Act-Act rotations                 ... depends on algorithm used

  Note: SuperCI(PT) will ignore FreezeIE, FreezeAct and FreezeGrad. In general Default settings are encouraged.
        In conjunction with ShiftUp, ShiftDn or GradScaling the performance of SuperCI(PT) is less optimal.  

  MaxRot                            ... 2.00e-01 
  Max. no of vectors (DIIS)         ... 15
  DThresh (cut-off) metric          ... 1.00e-06
  Switch step at gradient           ...  3.00e-02 
  Switch step at iteration          ...        50   
  Switch step to                    ... SuperCI(PT)    

SCF-SETTINGS:
  Incremental                       ... on
  RIJCOSX approximation             ... off
  RI-JK approximation               ... off
  AO integral handling              ... DIRECT
  Integral Neglect Thresh           ...  2.50e-11
  Primitive cutoff TCut             ...  2.50e-12
  Energy convergence tolerance      ...  2.50e-08
  Orbital gradient convergence      ...  2.50e-04
  Max. number of iterations         ...        75  

PT2-SETTINGS:
  A PT2 calculation will be performed on top of the CASSCF wave function (PT2 = SC-NEVPT2)   
 CI step strategy                   ... General CI
  D4C handling                      ... PS approximation (factorized) 
  CI truncation for D4C at          ...  1.00e-12
  CI truncation for D3  at          ...  1.00e-14
  Orbitals                          ... canonical for each state 
  Last  frozen  orbital             ... 13
  First deleted orbital             ... 560

FINAL ORBITALS:
  Active   Orbitals                 ... natural 
  Internal Orbitals                 ... canonical 
  External Orbitals                 ... canonical 

------------------
CAS-SCF ITERATIONS
------------------


MACRO-ITERATION   1: 
   --- Inactive Energy E0 = -535.44617052 Eh
CI-ITERATION   0: 
  -536.166891453   0.000000000000 (    0.00)
  -535.980973946   0.000000000000
  -535.861060720   0.000000000000
   CI-PROBLEM SOLVED
   DENSITIES MADE

                 <<<<<<<<<<<<<<<<<<INITIAL CI STATE CHECK>>>>>>>>>>>>>>>>>>

BLOCK  0 MULT= 1 NROOTS= 3 
ROOT   0:  E=    -536.1668914530 Eh
      0.98603 [     0]: 20
      0.01397 [     2]: 02
ROOT   1:  E=    -535.9809739465 Eh  5.059 eV  40804.2 cm**-1
      1.00000 [     1]: 11
ROOT   2:  E=    -535.8610607199 Eh  8.322 eV  67122.1 cm**-1
      0.98603 [     2]: 02
      0.01397 [     0]: 20

                 <<<<<<<<<<<<<<<<<<INITIAL CI STATE CHECK>>>>>>>>>>>>>>>>>>

   E(CAS)=  -536.002975373 Eh DE=    0.000000e+00
   --- Energy gap subspaces: Ext-Act = 0.142   Act-Int = 0.140
   N(occ)=  1.00000 1.00000
   ||g|| =     1.545912e-01 Max(G)=    6.308226e-02 Rot=48,44
   --- Orbital Update [SuperCI(PT)]
   --- Canonicalize Internal Space
   --- Canonicalize External Space
   --- SX_PT (Skipped TA=0 IT=0): ||X|| =      0.072104413 Max(X)(48,44) =      0.035470049 
   --- SFit(Active Orbitals)

MACRO-ITERATION   2: 
   --- Inactive Energy E0 = -535.45372499 Eh
CI-ITERATION   0: 
  -536.163673192   0.000000000000 (    0.00)
  -535.988231624   0.000000000000
  -535.874362100   0.000000000000
   CI-PROBLEM SOLVED
   DENSITIES MADE
   E(CAS)=  -536.008755639 Eh DE=   -5.780265e-03
   --- Energy gap subspaces: Ext-Act = 0.145   Act-Int = 0.145
   N(occ)=  1.00000 1.00000
   ||g|| =     6.620925e-02 Max(G)=    3.403942e-02 Rot=49,45
   --- Orbital Update [SuperCI(PT)]
   --- Canonicalize Internal Space
   --- Canonicalize External Space
   --- SX_PT (Skipped TA=0 IT=0): ||X|| =      0.032964753 Max(X)(49,45) =      0.019192775 
   --- SFit(Active Orbitals)

MACRO-ITERATION   3: 
   --- Inactive Energy E0 = -535.44922699 Eh
CI-ITERATION   0: 
  -536.161669418   0.000000000001 (    0.00)
  -535.989606144   0.000000000000
  -535.878655172   0.000000000000
   CI-PROBLEM SOLVED
   DENSITIES MADE
   E(CAS)=  -536.009976911 Eh DE=   -1.221273e-03
   --- Energy gap subspaces: Ext-Act = 0.147   Act-Int = 0.146
   N(occ)=  1.00000 1.00000
   ||g|| =     5.113488e-02 Max(G)=    1.963124e-02 Rot=48,44
   --- Orbital Update [SuperCI(PT)]
   --- Canonicalize Internal Space
   --- Canonicalize External Space
   --- SX_PT (Skipped TA=0 IT=0): ||X|| =      0.020475672 Max(X)(48,44) =     -0.011001074 
   --- SFit(Active Orbitals)

MACRO-ITERATION   4: 
   --- Inactive Energy E0 = -535.45174573 Eh
CI-ITERATION   0: 
  -536.160523930   0.000000000000 (    0.00)
  -535.989798122   0.000000000000
  -535.880638934   0.000000000000
   CI-PROBLEM SOLVED
   DENSITIES MADE
   E(CAS)=  -536.010320329 Eh DE=   -3.434174e-04
   --- Energy gap subspaces: Ext-Act = 0.147   Act-Int = 0.147
   N(occ)=  1.00000 1.00000
   ||g|| =     1.599628e-02 Max(G)=    7.040507e-03 Rot=49,45
   --- Orbital Update [SuperCI(PT)]
   --- Canonicalize Internal Space
   --- Canonicalize External Space
   --- SX_PT (Skipped TA=0 IT=0): ||X|| =      0.007547376 Max(X)(46,43) =     -0.004046955 
   --- SFit(Active Orbitals)

MACRO-ITERATION   5: 
   --- Inactive Energy E0 = -535.45134144 Eh
CI-ITERATION   0: 
  -536.160057599   0.000000000000 (    0.00)
  -535.989609336   0.000000000000
  -535.881475037   0.000000000000
   CI-PROBLEM SOLVED
   DENSITIES MADE
   E(CAS)=  -536.010380657 Eh DE=   -6.032867e-05
   --- Energy gap subspaces: Ext-Act = 0.148   Act-Int = 0.148
   N(occ)=  1.00000 1.00000
   ||g|| =     8.691704e-03 Max(G)=    1.503862e-03 Rot=48,44
   --- Orbital Update [SuperCI(PT)]
   --- Canonicalize Internal Space
   --- Canonicalize External Space
   --- SX_PT (Skipped TA=0 IT=0): ||X|| =      0.002089391 Max(X)(47,42) =      0.000842718 
   --- SFit(Active Orbitals)

MACRO-ITERATION   6: 
   --- Inactive Energy E0 = -535.45134461 Eh
CI-ITERATION   0: 
  -536.160029711   0.000000000000 (    0.00)
  -535.989557321   0.000000000000
  -535.881572618   0.000000000000
   CI-PROBLEM SOLVED
   DENSITIES MADE
   E(CAS)=  -536.010386550 Eh DE=   -5.892305e-06
   --- Energy gap subspaces: Ext-Act = 0.148   Act-Int = 0.148
   N(occ)=  1.00000 1.00000
   ||g|| =     1.316941e-03 Max(G)=    2.839312e-04 Rot=49,45
   --- Orbital Update [SuperCI(PT)]
   --- Canonicalize Internal Space
   --- Canonicalize External Space
   --- SX_PT (Skipped TA=0 IT=0): ||X|| =      0.000486746 Max(X)(53,47) =     -0.000313535 
   --- SFit(Active Orbitals)

MACRO-ITERATION   7: 
   --- Inactive Energy E0 = -535.45129345 Eh
CI-ITERATION   0: 
  -536.160018263   0.000000000001 (    0.00)
  -535.989551724   0.000000000000
  -535.881590300   0.000000000000
   CI-PROBLEM SOLVED
   DENSITIES MADE
   E(CAS)=  -536.010386762 Eh DE=   -2.126534e-07
   --- Energy gap subspaces: Ext-Act = 0.148   Act-Int = 0.148
   N(occ)=  1.00000 1.00000
   ||g|| =     4.610907e-04 Max(G)=    1.176552e-04 Rot=48,44
   --- Orbital Update [SuperCI(PT)]
   --- Canonicalize Internal Space
   --- Canonicalize External Space
   --- SX_PT (Skipped TA=0 IT=0): ||X|| =      0.000269972 Max(X)(53,47) =     -0.000205969 
   --- SFit(Active Orbitals)

MACRO-ITERATION   8: 
   --- Inactive Energy E0 = -535.45136770 Eh
CI-ITERATION   0: 
  -536.160008754   0.000000000000 (    0.00)
  -535.989552634   0.000000000000
  -535.881599121   0.000000000000
   CI-PROBLEM SOLVED
   DENSITIES MADE
   E(CAS)=  -536.010386837 Eh DE=   -7.426661e-08
   --- Energy gap subspaces: Ext-Act = 0.148   Act-Int = 0.148
   N(occ)=  1.00000 1.00000
   ||g|| =     2.361941e-04 Max(G)=    6.663703e-05 Rot=49,45
                     ---- THE CAS-SCF GRADIENT HAS CONVERGED ----
                            --- FINALIZING ORBITALS ---
                    ---- DOING ONE FINAL ITERATION FOR PRINTING ----
   --- Canonicalize Internal Space
   --- Canonicalize External Space

MACRO-ITERATION   9: 
   --- Inactive Energy E0 = -535.45136770 Eh
   --- All densities will be recomputed
CI-ITERATION   0: 
  -536.160008749   0.000000000000 (    0.00)
  -535.989552629   0.000000000000
  -535.881599116   0.000000000000
   CI-PROBLEM SOLVED
   DENSITIES MADE
   E(CAS)=  -536.010386831 Eh DE=    5.471975e-09
   --- Energy gap subspaces: Ext-Act = 0.148   Act-Int = 0.148
   N(occ)=  1.00000 1.00000
   ||g|| =     2.362045e-04 Max(G)=    6.595384e-05 Rot=49,45
--------------
CASSCF RESULTS
--------------

Final CASSCF energy       : -536.010386831 Eh  -14585.5841 eV

----------------
ORBITAL ENERGIES
----------------

  NO   OCC          E(Eh)            E(eV) 
   0   2.0000     -11.247598      -306.0627 
   1   2.0000     -11.247330      -306.0554 
   2   2.0000     -11.246824      -306.0416 
   3   2.0000     -11.246356      -306.0289 
   4   2.0000     -11.245042      -305.9931 
   5   2.0000     -11.244875      -305.9886 
   6   2.0000     -11.238589      -305.8176 
   7   2.0000     -11.238588      -305.8175 
   8   2.0000     -11.238537      -305.8161 
   9   2.0000     -11.238535      -305.8161 
  10   2.0000     -11.236200      -305.7525 
  11   2.0000     -11.236200      -305.7525 
  12   2.0000     -11.235172      -305.7246 
  13   2.0000     -11.235172      -305.7246 
  14   2.0000      -1.188673       -32.3454 
  15   2.0000      -1.147057       -31.2130 
  16   2.0000      -1.085418       -29.5357 
  17   2.0000      -1.067247       -29.0413 
  18   2.0000      -1.023963       -27.8634 
  19   2.0000      -1.006389       -27.3852 
  20   2.0000      -0.962023       -26.1780 
  21   2.0000      -0.881163       -23.9777 
  22   2.0000      -0.844770       -22.9874 
  23   2.0000      -0.818638       -22.2763 
  24   2.0000      -0.810752       -22.0617 
  25   2.0000      -0.746203       -20.3052 
  26   2.0000      -0.710887       -19.3442 
  27   2.0000      -0.690410       -18.7870 
  28   2.0000      -0.650741       -17.7076 
  29   2.0000      -0.640494       -17.4287 
  30   2.0000      -0.631174       -17.1751 
  31   2.0000      -0.618882       -16.8406 
  32   2.0000      -0.592558       -16.1243 
  33   2.0000      -0.583212       -15.8700 
  34   2.0000      -0.574081       -15.6216 
  35   2.0000      -0.550299       -14.9744 
  36   2.0000      -0.545194       -14.8355 
  37   2.0000      -0.537607       -14.6290 
  38   2.0000      -0.498594       -13.5674 
  39   2.0000      -0.493811       -13.4373 
  40   2.0000      -0.486995       -13.2518 
  41   2.0000      -0.474385       -12.9087 
  42   2.0000      -0.407932       -11.1004 
  43   2.0000      -0.399935       -10.8828 
  44   2.0000      -0.333857        -9.0847 
  45   2.0000      -0.317751        -8.6464 
  46   1.0000      -0.035146        -0.9564 
  47   1.0000      -0.170047        -4.6272 
  48   0.0000       0.112496         3.0612 
  49   0.0000       0.130067         3.5393 
  50   0.0000       0.143964         3.9175 
  51   0.0000       0.146016         3.9733 
  52   0.0000       0.151761         4.1296 
  53   0.0000       0.166973         4.5436 
  54   0.0000       0.170035         4.6269 
  55   0.0000       0.171318         4.6618 
  56   0.0000       0.193519         5.2659 
  57   0.0000       0.196617         5.3502 
  58   0.0000       0.209932         5.7125 
  59   0.0000       0.216160         5.8820 
  60   0.0000       0.240467         6.5434 
  61   0.0000       0.262440         7.1414 
  62   0.0000       0.321630         8.7520 
  63   0.0000       0.329973         8.9790 
  64   0.0000       0.332834         9.0569 
  65   0.0000       0.334159         9.0929 
  66   0.0000       0.372603        10.1390 
  67   0.0000       0.382868        10.4184 
  68   0.0000       0.387816        10.5530 
  69   0.0000       0.390964        10.6387 
  70   0.0000       0.406933        11.0732 
  71   0.0000       0.420698        11.4478 
  72   0.0000       0.422171        11.4879 
  73   0.0000       0.425480        11.5779 
  74   0.0000       0.429049        11.6750 
  75   0.0000       0.437386        11.9019 
  76   0.0000       0.459114        12.4931 
  77   0.0000       0.464162        12.6305 
  78   0.0000       0.465744        12.6735 
  79   0.0000       0.469381        12.7725 
  80   0.0000       0.479353        13.0439 
  81   0.0000       0.480965        13.0877 
  82   0.0000       0.496919        13.5219 
  83   0.0000       0.497625        13.5411 
  84   0.0000       0.508021        13.8240 
  85   0.0000       0.513815        13.9816 
  86   0.0000       0.521063        14.1788 
  87   0.0000       0.522236        14.2108 
  88   0.0000       0.533564        14.5190 
  89   0.0000       0.536185        14.5903 
  90   0.0000       0.544489        14.8163 
  91   0.0000       0.545109        14.8332 
  92   0.0000       0.546785        14.8788 
  93   0.0000       0.559736        15.2312 
  94   0.0000       0.580705        15.8018 
  95   0.0000       0.584625        15.9085 
  96   0.0000       0.586035        15.9468 
  97   0.0000       0.591520        16.0961 
  98   0.0000       0.592831        16.1317 
  99   0.0000       0.595072        16.1927 
 100   0.0000       0.603336        16.4176 
 101   0.0000       0.604637        16.4530 
 102   0.0000       0.608530        16.5589 
 103   0.0000       0.617319        16.7981 
 104   0.0000       0.630531        17.1576 
 105   0.0000       0.641346        17.4519 
 106   0.0000       0.642126        17.4731 
 107   0.0000       0.642854        17.4930 
 108   0.0000       0.650707        17.7066 
 109   0.0000       0.659070        17.9342 
 110   0.0000       0.662696        18.0329 
 111   0.0000       0.663091        18.0436 
 112   0.0000       0.701635        19.0925 
 113   0.0000       0.702682        19.1210 
 114   0.0000       0.705112        19.1871 
 115   0.0000       0.713064        19.4035 
 116   0.0000       0.719769        19.5859 
 117   0.0000       0.738127        20.0854 
 118   0.0000       0.738963        20.1082 
 119   0.0000       0.752621        20.4798 
 120   0.0000       0.760313        20.6892 
 121   0.0000       0.764531        20.8039 
 122   0.0000       0.778800        21.1922 
 123   0.0000       0.805654        21.9230 
 124   0.0000       0.817621        22.2486 
 125   0.0000       0.827613        22.5205 
 126   0.0000       0.827658        22.5217 
 127   0.0000       0.863385        23.4939 
 128   0.0000       0.865236        23.5443 
 129   0.0000       0.876761        23.8579 
 130   0.0000       0.887046        24.1377 
 131   0.0000       0.888823        24.1861 
 132   0.0000       0.890972        24.2446 
 133   0.0000       0.911766        24.8104 
 134   0.0000       0.931053        25.3352 
 135   0.0000       0.932181        25.3659 
 136   0.0000       0.932231        25.3673 
 137   0.0000       0.932395        25.3718 
 138   0.0000       0.947451        25.7815 
 139   0.0000       0.963912        26.2294 
 140   0.0000       0.973911        26.5015 
 141   0.0000       0.993406        27.0319 
 142   0.0000       0.994960        27.0742 
 143   0.0000       1.007195        27.4072 
 144   0.0000       1.009116        27.4594 
 145   0.0000       1.023526        27.8516 
 146   0.0000       1.028916        27.9982 
 147   0.0000       1.035491        28.1771 
 148   0.0000       1.048278        28.5251 
 149   0.0000       1.050387        28.5825 
 150   0.0000       1.054995        28.7079 
 151   0.0000       1.056051        28.7366 
 152   0.0000       1.059283        28.8246 
 153   0.0000       1.075843        29.2752 
 154   0.0000       1.077179        29.3115 
 155   0.0000       1.096714        29.8431 
 156   0.0000       1.104372        30.0515 
 157   0.0000       1.137203        30.9449 
 158   0.0000       1.138344        30.9759 
 159   0.0000       1.140131        31.0245 
 160   0.0000       1.152015        31.3479 
 161   0.0000       1.158048        31.5121 
 162   0.0000       1.166327        31.7374 
 163   0.0000       1.169994        31.8372 
 164   0.0000       1.194888        32.5145 
 165   0.0000       1.199690        32.6452 
 166   0.0000       1.215433        33.0736 
 167   0.0000       1.218505        33.1572 
 168   0.0000       1.232422        33.5359 
 169   0.0000       1.235468        33.6188 
 170   0.0000       1.235481        33.6191 
 171   0.0000       1.250719        34.0338 
 172   0.0000       1.270663        34.5765 
 173   0.0000       1.273520        34.6542 
 174   0.0000       1.275572        34.7101 
 175   0.0000       1.286857        35.0172 
 176   0.0000       1.300665        35.3929 
 177   0.0000       1.337055        36.3831 
 178   0.0000       1.342667        36.5358 
 179   0.0000       1.369184        37.2574 
 180   0.0000       1.377391        37.4807 
 181   0.0000       1.380513        37.5657 
 182   0.0000       1.381593        37.5950 
 183   0.0000       1.399471        38.0815 
 184   0.0000       1.412857        38.4458 
 185   0.0000       1.440573        39.2000 
 186   0.0000       1.442346        39.2482 
 187   0.0000       1.447428        39.3865 
 188   0.0000       1.448402        39.4130 
 189   0.0000       1.463379        39.8206 
 190   0.0000       1.473449        40.0946 
 191   0.0000       1.493874        40.6504 
 192   0.0000       1.503091        40.9012 
 193   0.0000       1.507546        41.0224 
 194   0.0000       1.516851        41.2756 
 195   0.0000       1.527576        41.5675 
 196   0.0000       1.528697        41.5980 
 197   0.0000       1.548543        42.1380 
 198   0.0000       1.563240        42.5379 
 199   0.0000       1.566507        42.6268 
 200   0.0000       1.573288        42.8113 
 201   0.0000       1.578300        42.9477 
 202   0.0000       1.582157        43.0527 
 203   0.0000       1.604140        43.6509 
 204   0.0000       1.606919        43.7265 
 205   0.0000       1.611458        43.8500 
 206   0.0000       1.613102        43.8947 
 207   0.0000       1.630697        44.3735 
 208   0.0000       1.632305        44.4173 
 209   0.0000       1.646911        44.8147 
 210   0.0000       1.670627        45.4601 
 211   0.0000       1.671650        45.4879 
 212   0.0000       1.673773        45.5457 
 213   0.0000       1.674217        45.5578 
 214   0.0000       1.684396        45.8347 
 215   0.0000       1.700226        46.2655 
 216   0.0000       1.703626        46.3580 
 217   0.0000       1.757270        47.8177 
 218   0.0000       1.762324        47.9553 
 219   0.0000       1.791206        48.7412 
 220   0.0000       1.802680        49.0534 
 221   0.0000       1.806665        49.1618 
 222   0.0000       1.840280        50.0766 
 223   0.0000       1.854948        50.4757 
 224   0.0000       1.859360        50.5958 
 225   0.0000       1.932889        52.5966 
 226   0.0000       1.958393        53.2906 
 227   0.0000       1.964031        53.4440 
 228   0.0000       1.981837        53.9285 
 229   0.0000       2.023991        55.0756 
 230   0.0000       2.044284        55.6278 
 231   0.0000       2.053890        55.8892 
 232   0.0000       2.057798        55.9955 
 233   0.0000       2.062396        56.1206 
 234   0.0000       2.109178        57.3937 
 235   0.0000       2.168997        59.0214 
 236   0.0000       2.195131        59.7326 
 237   0.0000       2.208961        60.1089 
 238   0.0000       2.210886        60.1613 
 239   0.0000       2.226813        60.5947 
 240   0.0000       2.309994        62.8581 
 241   0.0000       2.339170        63.6521 
 242   0.0000       2.339746        63.6677 
 243   0.0000       2.358292        64.1724 
 244   0.0000       2.362449        64.2855 
 245   0.0000       2.374401        64.6107 
 246   0.0000       2.394043        65.1452 
 247   0.0000       2.422622        65.9229 
 248   0.0000       2.439882        66.3926 
 249   0.0000       2.447363        66.5961 
 250   0.0000       2.450790        66.6894 
 251   0.0000       2.473232        67.3001 
 252   0.0000       2.488670        67.7201 
 253   0.0000       2.531799        68.8938 
 254   0.0000       2.531868        68.8956 
 255   0.0000       2.540722        69.1366 
 256   0.0000       2.540754        69.1374 
 257   0.0000       2.568325        69.8877 
 258   0.0000       2.569419        69.9175 
 259   0.0000       2.574503        70.0558 
 260   0.0000       2.629370        71.5488 
 261   0.0000       2.637920        71.7815 
 262   0.0000       2.642615        71.9092 
 263   0.0000       2.645721        71.9937 
 264   0.0000       2.699932        73.4689 
 265   0.0000       2.708200        73.6939 
 266   0.0000       2.727476        74.2184 
 267   0.0000       2.737296        74.4856 
 268   0.0000       2.745745        74.7155 
 269   0.0000       2.749460        74.8166 
 270   0.0000       2.773108        75.4601 
 271   0.0000       2.777833        75.5887 
 272   0.0000       2.779685        75.6391 
 273   0.0000       2.781617        75.6916 
 274   0.0000       2.806518        76.3692 
 275   0.0000       2.807465        76.3950 
 276   0.0000       2.810719        76.4836 
 277   0.0000       2.810756        76.4846 
 278   0.0000       2.819395        76.7196 
 279   0.0000       2.822656        76.8084 
 280   0.0000       2.836283        77.1792 
 281   0.0000       2.839897        77.2775 
 282   0.0000       2.855303        77.6968 
 283   0.0000       2.884193        78.4829 
 284   0.0000       2.895149        78.7810 
 285   0.0000       2.896991        78.8311 
 286   0.0000       2.906442        79.0883 
 287   0.0000       2.927701        79.6668 
 288   0.0000       2.938802        79.9689 
 289   0.0000       2.939519        79.9884 
 290   0.0000       2.960191        80.5509 
 291   0.0000       2.990759        81.3827 
 292   0.0000       2.998325        81.5886 
 293   0.0000       2.998743        81.6000 
 294   0.0000       3.021057        82.2071 
 295   0.0000       3.033403        82.5431 
 296   0.0000       3.043090        82.8067 
 297   0.0000       3.045123        82.8620 
 298   0.0000       3.049021        82.9681 
 299   0.0000       3.054621        83.1205 
 300   0.0000       3.058086        83.2147 
 301   0.0000       3.064789        83.3971 
 302   0.0000       3.065894        83.4272 
 303   0.0000       3.067157        83.4616 
 304   0.0000       3.067940        83.4829 
 305   0.0000       3.092681        84.1561 
 306   0.0000       3.104169        84.4687 
 307   0.0000       3.115973        84.7899 
 308   0.0000       3.118796        84.8667 
 309   0.0000       3.130163        85.1761 
 310   0.0000       3.148995        85.6885 
 311   0.0000       3.182192        86.5919 
 312   0.0000       3.193662        86.9040 
 313   0.0000       3.194283        86.9209 
 314   0.0000       3.221952        87.6738 
 315   0.0000       3.223167        87.7068 
 316   0.0000       3.230627        87.9098 
 317   0.0000       3.234539        88.0163 
 318   0.0000       3.264179        88.8228 
 319   0.0000       3.267002        88.8996 
 320   0.0000       3.276050        89.1459 
 321   0.0000       3.277284        89.1794 
 322   0.0000       3.297888        89.7401 
 323   0.0000       3.301386        89.8353 
 324   0.0000       3.305270        89.9410 
 325   0.0000       3.316511        90.2469 
 326   0.0000       3.316942        90.2586 
 327   0.0000       3.322141        90.4001 
 328   0.0000       3.324138        90.4544 
 329   0.0000       3.330956        90.6399 
 330   0.0000       3.336806        90.7991 
 331   0.0000       3.349222        91.1370 
 332   0.0000       3.353421        91.2512 
 333   0.0000       3.362794        91.5063 
 334   0.0000       3.366129        91.5970 
 335   0.0000       3.370886        91.7265 
 336   0.0000       3.376762        91.8864 
 337   0.0000       3.378664        91.9381 
 338   0.0000       3.398937        92.4898 
 339   0.0000       3.400900        92.5432 
 340   0.0000       3.407500        92.7228 
 341   0.0000       3.410978        92.8174 
 342   0.0000       3.413825        92.8949 
 343   0.0000       3.414394        92.9104 
 344   0.0000       3.428585        93.2965 
 345   0.0000       3.428773        93.3017 
 346   0.0000       3.445044        93.7444 
 347   0.0000       3.470797        94.4452 
 348   0.0000       3.483360        94.7871 
 349   0.0000       3.483661        94.7952 
 350   0.0000       3.484263        94.8116 
 351   0.0000       3.486688        94.8776 
 352   0.0000       3.494378        95.0869 
 353   0.0000       3.515094        95.6506 
 354   0.0000       3.527692        95.9934 
 355   0.0000       3.534695        96.1840 
 356   0.0000       3.557343        96.8002 
 357   0.0000       3.559022        96.8459 
 358   0.0000       3.567949        97.0888 
 359   0.0000       3.572120        97.2023 
 360   0.0000       3.594361        97.8075 
 361   0.0000       3.604346        98.0792 
 362   0.0000       3.614448        98.3541 
 363   0.0000       3.618237        98.4572 
 364   0.0000       3.621343        98.5418 
 365   0.0000       3.623402        98.5978 
 366   0.0000       3.623581        98.6026 
 367   0.0000       3.641106        99.0795 
 368   0.0000       3.651431        99.3605 
 369   0.0000       3.658164        99.5437 
 370   0.0000       3.668388        99.8219 
 371   0.0000       3.672465        99.9328 
 372   0.0000       3.684893       100.2710 
 373   0.0000       3.695218       100.5520 
 374   0.0000       3.699388       100.6655 
 375   0.0000       3.710199       100.9596 
 376   0.0000       3.717853       101.1679 
 377   0.0000       3.720036       101.2273 
 378   0.0000       3.740827       101.7931 
 379   0.0000       3.742680       101.8435 
 380   0.0000       3.750191       102.0479 
 381   0.0000       3.755943       102.2044 
 382   0.0000       3.805103       103.5421 
 383   0.0000       3.806976       103.5931 
 384   0.0000       3.822682       104.0205 
 385   0.0000       3.824585       104.0722 
 386   0.0000       3.856816       104.9493 
 387   0.0000       3.857121       104.9576 
 388   0.0000       3.870517       105.3221 
 389   0.0000       3.897029       106.0436 
 390   0.0000       3.897120       106.0460 
 391   0.0000       3.904758       106.2539 
 392   0.0000       3.911936       106.4492 
 393   0.0000       3.926606       106.8484 
 394   0.0000       3.959448       107.7421 
 395   0.0000       3.965842       107.9161 
 396   0.0000       3.968706       107.9940 
 397   0.0000       3.975493       108.1787 
 398   0.0000       4.014511       109.2404 
 399   0.0000       4.032615       109.7330 
 400   0.0000       4.040015       109.9344 
 401   0.0000       4.046222       110.1033 
 402   0.0000       4.049118       110.1821 
 403   0.0000       4.049651       110.1966 
 404   0.0000       4.057202       110.4021 
 405   0.0000       4.057613       110.4133 
 406   0.0000       4.068465       110.7086 
 407   0.0000       4.081928       111.0749 
 408   0.0000       4.089381       111.2777 
 409   0.0000       4.094126       111.4068 
 410   0.0000       4.098922       111.5373 
 411   0.0000       4.108789       111.8058 
 412   0.0000       4.126500       112.2878 
 413   0.0000       4.133084       112.4669 
 414   0.0000       4.139351       112.6375 
 415   0.0000       4.153635       113.0262 
 416   0.0000       4.160836       113.2221 
 417   0.0000       4.162348       113.2632 
 418   0.0000       4.164512       113.3221 
 419   0.0000       4.164759       113.3288 
 420   0.0000       4.223440       114.9257 
 421   0.0000       4.244032       115.4860 
 422   0.0000       4.246686       115.5582 
 423   0.0000       4.253384       115.7405 
 424   0.0000       4.257576       115.8545 
 425   0.0000       4.265863       116.0800 
 426   0.0000       4.273410       116.2854 
 427   0.0000       4.275836       116.3514 
 428   0.0000       4.294839       116.8685 
 429   0.0000       4.308143       117.2305 
 430   0.0000       4.309556       117.2690 
 431   0.0000       4.312158       117.3398 
 432   0.0000       4.313122       117.3660 
 433   0.0000       4.336620       118.0054 
 434   0.0000       4.348689       118.3339 
 435   0.0000       4.365105       118.7806 
 436   0.0000       4.366304       118.8132 
 437   0.0000       4.371550       118.9559 
 438   0.0000       4.388683       119.4221 
 439   0.0000       4.442840       120.8958 
 440   0.0000       4.450090       121.0931 
 441   0.0000       4.452238       121.1516 
 442   0.0000       4.458503       121.3220 
 443   0.0000       4.460029       121.3636 
 444   0.0000       4.472969       121.7157 
 445   0.0000       4.481773       121.9553 
 446   0.0000       4.492736       122.2536 
 447   0.0000       4.527037       123.1869 
 448   0.0000       4.528008       123.2134 
 449   0.0000       4.549729       123.8044 
 450   0.0000       4.554714       123.9401 
 451   0.0000       4.557733       124.0222 
 452   0.0000       4.559756       124.0773 
 453   0.0000       4.575202       124.4976 
 454   0.0000       4.577554       124.5616 
 455   0.0000       4.583314       124.7183 
 456   0.0000       4.585067       124.7660 
 457   0.0000       4.595592       125.0524 
 458   0.0000       4.606611       125.3523 
 459   0.0000       4.647568       126.4667 
 460   0.0000       4.656635       126.7135 
 461   0.0000       4.665329       126.9500 
 462   0.0000       4.667615       127.0123 
 463   0.0000       4.669484       127.0631 
 464   0.0000       4.671021       127.1049 
 465   0.0000       4.683682       127.4495 
 466   0.0000       4.693495       127.7165 
 467   0.0000       4.697042       127.8130 
 468   0.0000       4.699101       127.8690 
 469   0.0000       4.711295       128.2008 
 470   0.0000       4.751804       129.3032 
 471   0.0000       4.765345       129.6716 
 472   0.0000       4.767353       129.7263 
 473   0.0000       4.773829       129.9025 
 474   0.0000       4.784714       130.1987 
 475   0.0000       4.847905       131.9182 
 476   0.0000       4.848770       131.9417 
 477   0.0000       4.858085       132.1952 
 478   0.0000       4.874254       132.6352 
 479   0.0000       4.875809       132.6775 
 480   0.0000       4.924332       133.9979 
 481   0.0000       4.945577       134.5760 
 482   0.0000       4.978624       135.4752 
 483   0.0000       5.028448       136.8310 
 484   0.0000       5.028668       136.8370 
 485   0.0000       5.046269       137.3159 
 486   0.0000       5.049072       137.3922 
 487   0.0000       5.050502       137.4311 
 488   0.0000       5.052708       137.4912 
 489   0.0000       5.120420       139.3337 
 490   0.0000       5.120498       139.3358 
 491   0.0000       5.129243       139.5738 
 492   0.0000       5.137097       139.7875 
 493   0.0000       5.151989       140.1927 
 494   0.0000       5.159813       140.4056 
 495   0.0000       5.164221       140.5256 
 496   0.0000       5.165504       140.5605 
 497   0.0000       5.182105       141.0122 
 498   0.0000       5.208547       141.7318 
 499   0.0000       5.241764       142.6356 
 500   0.0000       5.269005       143.3769 
 501   0.0000       5.270734       143.4240 
 502   0.0000       5.303539       144.3166 
 503   0.0000       5.327720       144.9746 
 504   0.0000       5.346120       145.4753 
 505   0.0000       5.357932       145.7967 
 506   0.0000       5.369221       146.1039 
 507   0.0000       5.390867       146.6930 
 508   0.0000       5.420563       147.5010 
 509   0.0000       5.433127       147.8429 
 510   0.0000       5.466033       148.7383 
 511   0.0000       5.486018       149.2821 
 512   0.0000       5.490533       149.4050 
 513   0.0000       5.495092       149.5291 
 514   0.0000       5.542287       150.8133 
 515   0.0000       5.581871       151.8904 
 516   0.0000       5.589400       152.0953 
 517   0.0000       5.634616       153.3257 
 518   0.0000       5.708603       155.3390 
 519   0.0000       5.724072       155.7599 
 520   0.0000       5.725693       155.8040 
 521   0.0000       5.749237       156.4447 
 522   0.0000       5.829771       158.6361 
 523   0.0000       5.830904       158.6670 
 524   0.0000       5.860383       159.4691 
 525   0.0000       5.875595       159.8831 
 526   0.0000       5.929301       161.3445 
 527   0.0000       6.012668       163.6130 
 528   0.0000       6.058445       164.8587 
 529   0.0000       6.142922       167.1574 
 530   0.0000       6.178388       168.1225 
 531   0.0000       6.186093       168.3322 
 532   0.0000       6.228357       169.4822 
 533   0.0000       6.274065       170.7260 
 534   0.0000       6.303675       171.5317 
 535   0.0000       6.342448       172.5868 
 536   0.0000       6.365389       173.2110 
 537   0.0000       6.397830       174.0938 
 538   0.0000       6.470687       176.0764 
 539   0.0000       6.558228       178.4585 
 540   0.0000       6.580342       179.0602 
 541   0.0000       6.660582       181.2436 
 542   0.0000       6.772039       184.2765 
 543   0.0000       6.855937       186.5595 
 544   0.0000       7.150437       194.5733 
 545   0.0000       7.435445       202.3287 
 546   0.0000       8.565362       233.0754 
 547   0.0000      10.629877       289.2536 
 548   0.0000      12.073914       328.5479 
 549   0.0000      12.970324       352.9405 
 550   0.0000      13.414105       365.0164 
 551   0.0000      13.461510       366.3063 
 552   0.0000      13.638204       371.1144 
 553   0.0000      13.913460       378.6045 
 554   0.0000      13.998258       380.9120 
 555   0.0000      14.466001       393.6399 
 556   0.0000      15.261988       415.2998 
 557   0.0000      15.951298       434.0569 
 558   0.0000      16.083109       437.6436 
 559   0.0000      16.689866       454.1543 


---------------------------------------------
CAS-SCF STATES FOR BLOCK  0 MULT= 1 NROOTS= 3
---------------------------------------------

ROOT   0:  E=    -536.1600087489 Eh
      0.98454 [     2]: 02
      0.01546 [     0]: 20
ROOT   1:  E=    -535.9895526290 Eh  4.638 eV  37410.8 cm**-1
      1.00000 [     1]: 11
ROOT   2:  E=    -535.8815991158 Eh  7.576 eV  61103.9 cm**-1
      0.98454 [     0]: 20
      0.01546 [     2]: 02


--------------
DENSITY MATRIX
--------------

                  0          1    
      0       1.000000  -0.000000
      1      -0.000000   1.000000
Trace of the electron density:  2.000000

-----------------
ENERGY COMPONENTS
-----------------

One electron energy          :  -2247.636060425 Eh      -61161.2866 eV
Two electron energy          :    943.948810742 Eh       25686.1530 eV
Nuclear repulsion energy     :    767.676862852 Eh       20889.5494 eV
                               ----------------
                                 -536.010386831

Kinetic energy               :    535.506449492 Eh       14571.8713 eV
Potential energy             :  -1071.516836323 Eh      -29157.4555 eV
Virial ratio                 :     -2.000941048 
                               ----------------
                                 -536.010386831

Core energy                  :   -535.451367699 Eh   -14570.3725 eV


----------------------------
LOEWDIN REDUCED ACTIVE MOs  
----------------------------

                     42        43        44        45        46        47   
                  -0.40793  -0.39993  -0.33386  -0.31775  -0.03515  -0.17005
                   2.00000   2.00000   2.00000   2.00000   1.00000   1.00000
                  --------  --------  --------  --------  --------  --------
 0 C  pz             12.9       1.4       3.7       9.7       4.5       4.6
 1 C  pz              2.9       7.7      14.0       0.0       6.3       6.8
 2 C  pz              2.6       6.6       3.5      11.1       1.2       1.2
 3 C  pz              2.6       6.6       3.5      11.1       1.2       1.2
 4 C  pz              2.9       7.7      14.0       0.0       6.3       6.8
 5 C  pz             12.9       1.4       3.7       9.7       4.5       4.6
 6 C  pz              7.0      12.9       0.0       0.0      12.0      15.0
 7 C  pz              2.6       6.6       3.5      11.1       1.2       1.2
 8 C  pz              7.0      12.9       0.0       0.0      12.0      15.0
 9 C  pz              2.6       6.6       3.5      11.1       1.2       1.2
10 C  pz              2.9       7.7      14.0       0.0       6.3       6.8
11 C  pz             12.9       1.4       3.7       9.7       4.5       4.6
12 C  pz             12.9       1.4       3.7       9.7       4.5       4.6
13 C  pz              2.9       7.7      14.0       0.0       6.3       6.8

------------------
MOLECULAR ORBITALS
------------------
                      0         1         2         3         4         5   
                 -11.24760 -11.24733 -11.24682 -11.24636 -11.24504 -11.24488
                   2.00000   2.00000   2.00000   2.00000   2.00000   2.00000
                  --------  --------  --------  --------  --------  --------
  0C   1s        -0.000983  0.001161 -0.001840  0.002280  0.000757  0.001504
  0C   2s         0.000131  0.000037 -0.000396  0.000289  0.000071  0.000097
  0C   3s         0.000002 -0.000043 -0.000009 -0.000001 -0.000033 -0.000061
  0C   4s         0.000328  0.000773 -0.005240  0.000797 -0.000274 -0.002176
  0C   1pz       -0.000000  0.000000 -0.000000  0.000000  0.000000  0.000000
  0C   1px       -0.000130  0.000087 -0.000099  0.000124  0.000005  0.000017
  0C   1py        0.000014 -0.000013 -0.000009  0.000028  0.000016 -0.000015
  0C   2pz        0.000000 -0.000000  0.000000 -0.000000 -0.000000 -0.000000
  0C   2px        0.000629 -0.000450  0.000093 -0.000260 -0.000008  0.000026
  0C   2py       -0.000288  0.000220  0.000047 -0.000146 -0.000073  0.000166
  0C   3pz       -0.000000 -0.000000 -0.000000 -0.000000  0.000000 -0.000000
  0C   3px        0.000214 -0.000008 -0.002146  0.000302  0.000075 -0.001127
  0C   3py        0.000337  0.000204  0.000037  0.000779 -0.000147  0.000056
  0C   1dz2      -0.000017  0.000010 -0.000003 -0.000004 -0.000009 -0.000016
  0C   1dxz       0.000000  0.000000 -0.000000  0.000000 -0.000000 -0.000000
  0C   1dyz      -0.000000  0.000000  0.000000 -0.000000  0.000000  0.000000
  0C   1dx2y2    -0.000018  0.000014 -0.000012  0.000006 -0.000000 -0.000001
  0C   1dxy       0.000014 -0.000001  0.000015 -0.000002  0.000021  0.000033
  0C   2dz2       0.000093 -0.000141  0.000073 -0.000026 -0.000067 -0.000103
  0C   2dxz       0.000000  0.000000  0.000000 -0.000000  0.000000  0.000000
  0C   2dyz       0.000000 -0.000000 -0.000000  0.000000  0.000000 -0.000000
  0C   2dx2y2     0.000248 -0.000029  0.000784 -0.000554  0.000194  0.000512
  0C   2dxy       0.000123 -0.000111 -0.000722  0.000333 -0.000050 -0.000370
  0C   1f0       -0.000000  0.000000 -0.000000  0.000000  0.000000 -0.000000
  0C   1f+1      -0.000032  0.000024 -0.000020  0.000016 -0.000003 -0.000010
  0C   1f-1      -0.000008 -0.000007 -0.000022  0.000016 -0.000018 -0.000011
  0C   1f+2       0.000000 -0.000000  0.000000 -0.000000 -0.000000 -0.000000
  0C   1f-2      -0.000000  0.000000 -0.000000  0.000000  0.000000  0.000000
  0C   1f+3      -0.000025  0.000023 -0.000018  0.000016  0.000012  0.000026
  0C   1f-3       0.000039 -0.000055  0.000023 -0.000038 -0.000025 -0.000054
  1C   1s        -0.026846  0.029612 -0.027805  0.033989  0.014273  0.021231
  1C   2s        -0.000103  0.000381 -0.000304  0.000196  0.000138  0.000417
  1C   3s        -0.000181  0.000074 -0.000141  0.000163  0.000049  0.000186
  1C   4s         0.001773  0.000075  0.005204  0.001075  0.000677  0.003756
  1C   1pz       -0.000000  0.000000 -0.000000  0.000000 -0.000000 -0.000000
  1C   1px       -0.000492  0.000304 -0.000371  0.000349 -0.000042  0.000032
  1C   1py        0.000241 -0.000194  0.000014 -0.000059 -0.000050 -0.000055
  1C   2pz        0.000000 -0.000000 -0.000000  0.000000  0.000000  0.000000
  1C   2px        0.000996  0.000044  0.000409 -0.000223  0.000678  0.000969
  1C   2py       -0.000574  0.000205  0.000485 -0.000385 -0.000198 -0.000498
  1C   3pz        0.000000  0.000000  0.000000  0.000000  0.000000  0.000000
  1C   3px        0.001772  0.000324 -0.001710  0.001746 -0.000212 -0.000568
  1C   3py       -0.000671  0.000079 -0.003274  0.000738 -0.000750 -0.002187
  1C   1dz2      -0.000051  0.000029 -0.000034  0.000031 -0.000000  0.000031
  1C   1dxz       0.000000 -0.000000  0.000000 -0.000000 -0.000000 -0.000000
  1C   1dyz      -0.000000  0.000000 -0.000000  0.000000  0.000000 -0.000000
  1C   1dx2y2     0.000008  0.000007 -0.000037  0.000016 -0.000015 -0.000032
  1C   1dxy      -0.000041  0.000003 -0.000029  0.000028 -0.000009  0.000000
  1C   2dz2      -0.000033 -0.000093 -0.000090  0.000048  0.000051  0.000213
  1C   2dxz       0.000000  0.000000  0.000000 -0.000000  0.000000  0.000000
  1C   2dyz      -0.000000  0.000000  0.000000 -0.000000  0.000000  0.000000
  1C   2dx2y2     0.000591  0.000022  0.001511 -0.000786  0.000705  0.001151
  1C   2dxy      -0.000658  0.000343  0.000009  0.000296  0.000066  0.000066
  1C   1f0       -0.000000  0.000000 -0.000000  0.000000 -0.000000  0.000000
  1C   1f+1      -0.000094  0.000049 -0.000066  0.000081 -0.000000  0.000050
  1C   1f-1       0.000058 -0.000031  0.000019 -0.000014 -0.000006 -0.000015
  1C   1f+2       0.000000 -0.000000  0.000000 -0.000000  0.000000 -0.000000
  1C   1f-2      -0.000000  0.000000 -0.000000  0.000000  0.000000  0.000000
  1C   1f+3       0.000017 -0.000021 -0.000074  0.000075 -0.000053 -0.000004
  1C   1f-3       0.000126 -0.000100  0.000157 -0.000191 -0.000077 -0.000185
  2C   1s        -0.469342  0.499028 -0.435190  0.498741  0.169134  0.243990
  2C   2s        -0.001666  0.002215 -0.002114  0.001646  0.000817  0.001091
  2C   3s        -0.000879  0.000942 -0.000694  0.000773  0.000139  0.000173
  2C   4s        -0.003719  0.000855 -0.008844  0.005145  0.004100  0.008531
  2C   1pz       -0.000000  0.000000 -0.000000  0.000000  0.000000  0.000000
  2C   1px       -0.000404 -0.000031 -0.000381  0.000022 -0.000627 -0.000311
  2C   1py        0.000425 -0.000451 -0.000545  0.000339 -0.000417 -0.000259
  2C   2pz        0.000000 -0.000000  0.000000 -0.000000  0.000000  0.000000
  2C   2px        0.000844  0.000679  0.000444  0.000127  0.001508  0.000560
  2C   2py       -0.000677  0.000147  0.001144 -0.000333  0.000378  0.001033
  2C   3pz        0.000000  0.000000 -0.000000  0.000000  0.000000  0.000000
  2C   3px        0.000334  0.001199  0.004578  0.000105  0.003240  0.009220
  2C   3py       -0.001383  0.000627  0.008161 -0.008521  0.001125  0.001753
  2C   1dz2       0.000249 -0.000324  0.000322 -0.000413 -0.000198 -0.000273
  2C   1dxz      -0.000000  0.000000 -0.000000  0.000000  0.000000  0.000000
  2C   1dyz       0.000000 -0.000000  0.000000 -0.000000 -0.000000 -0.000000
  2C   1dx2y2    -0.000049  0.000013 -0.000066  0.000054  0.000040  0.000049
  2C   1dxy      -0.000018  0.000020 -0.000039  0.000022  0.000026 -0.000030
  2C   2dz2       0.000176  0.000112  0.000182 -0.000022 -0.000062 -0.000262
  2C   2dxz      -0.000000  0.000000  0.000000 -0.000000  0.000000 -0.000000
  2C   2dyz       0.000000  0.000000  0.000000 -0.000000  0.000000  0.000000
  2C   2dx2y2    -0.000253  0.000726  0.002367 -0.000960  0.000562 -0.000037
  2C   2dxy       0.000367  0.000231  0.001182 -0.000389  0.001142  0.003570
  2C   1f0       -0.000000  0.000000 -0.000000 -0.000000 -0.000000 -0.000000
  2C   1f+1      -0.000049 -0.000041 -0.000057 -0.000021 -0.000130 -0.000109
  2C   1f-1       0.000072 -0.000081 -0.000128  0.000070 -0.000085 -0.000032
  2C   1f+2       0.000000 -0.000000  0.000000 -0.000000  0.000000 -0.000000
  2C   1f-2      -0.000000  0.000000 -0.000000  0.000000  0.000000  0.000000
  2C   1f+3      -0.000011 -0.000025 -0.000056 -0.000009  0.000064 -0.000062
  2C   1f-3       0.000154 -0.000109  0.000388 -0.000506 -0.000276 -0.000547
  3C   1s        -0.469347  0.499030  0.435187 -0.498737  0.169162 -0.243973
  3C   2s        -0.001666  0.002215  0.002114 -0.001646  0.000817 -0.001091
  3C   3s        -0.000879  0.000942  0.000694 -0.000773  0.000139 -0.000173
  3C   4s        -0.003719  0.000855  0.008844 -0.005145  0.004101 -0.008530
  3C   1pz       -0.000000  0.000000  0.000000 -0.000000  0.000000 -0.000000
  3C   1px       -0.000404 -0.000031  0.000381 -0.000022 -0.000627  0.000311
  3C   1py       -0.000425  0.000451 -0.000545  0.000339  0.000417 -0.000259
  3C   2pz        0.000000 -0.000000 -0.000000  0.000000 -0.000000  0.000000
  3C   2px        0.000844  0.000679 -0.000444 -0.000127  0.001508 -0.000560
  3C   2py        0.000677 -0.000147  0.001144 -0.000333 -0.000378  0.001033
  3C   3pz        0.000000 -0.000000 -0.000000  0.000000  0.000000 -0.000000
  3C   3px        0.000334  0.001199 -0.004578 -0.000105  0.003241 -0.009220
  3C   3py        0.001383 -0.000627  0.008161 -0.008521 -0.001125  0.001753
  3C   1dz2       0.000249 -0.000324 -0.000322  0.000413 -0.000198  0.000273
  3C   1dxz      -0.000000  0.000000  0.000000 -0.000000 -0.000000 -0.000000
  3C   1dyz       0.000000 -0.000000 -0.000000  0.000000  0.000000  0.000000
  3C   1dx2y2    -0.000049  0.000013  0.000066 -0.000054  0.000040 -0.000049
  3C   1dxy       0.000018 -0.000020 -0.000039  0.000022 -0.000026 -0.000030
  3C   2dz2       0.000176  0.000112 -0.000182  0.000022 -0.000062  0.000262
  3C   2dxz       0.000000 -0.000000 -0.000000  0.000000 -0.000000 -0.000000
  3C   2dyz      -0.000000  0.000000 -0.000000  0.000000  0.000000  0.000000
  3C   2dx2y2    -0.000253  0.000727 -0.002367  0.000960  0.000562  0.000037
  3C   2dxy      -0.000367 -0.000231  0.001182 -0.000389 -0.001142  0.003570
  3C   1f0       -0.000000  0.000000  0.000000 -0.000000  0.000000 -0.000000
  3C   1f+1      -0.000049 -0.000041  0.000057  0.000021 -0.000130  0.000109
  3C   1f-1      -0.000072  0.000081 -0.000128  0.000070  0.000085 -0.000032
  3C   1f+2       0.000000 -0.000000  0.000000 -0.000000 -0.000000 -0.000000
  3C   1f-2       0.000000 -0.000000 -0.000000  0.000000  0.000000 -0.000000
  3C   1f+3      -0.000011 -0.000025  0.000056  0.000009  0.000064  0.000062
  3C   1f-3      -0.000154  0.000109  0.000388 -0.000506  0.000276 -0.000547
  4C   1s        -0.026846  0.029612  0.027805 -0.033988  0.014276 -0.021230
  4C   2s        -0.000103  0.000381  0.000304 -0.000196  0.000138 -0.000417
  4C   3s        -0.000181  0.000074  0.000141 -0.000163  0.000049 -0.000186
  4C   4s         0.001773  0.000075 -0.005204 -0.001075  0.000678 -0.003756
  4C   1pz       -0.000000  0.000000  0.000000 -0.000000  0.000000 -0.000000
  4C   1px       -0.000492  0.000304  0.000371 -0.000349 -0.000042 -0.000032
  4C   1py       -0.000241  0.000194  0.000014 -0.000059  0.000050 -0.000055
  4C   2pz        0.000000  0.000000 -0.000000  0.000000  0.000000 -0.000000
  4C   2px        0.000996  0.000044 -0.000409  0.000223  0.000678 -0.000969
  4C   2py        0.000574 -0.000205  0.000485 -0.000385  0.000198 -0.000498
  4C   3pz        0.000000  0.000000  0.000000 -0.000000 -0.000000  0.000000
  4C   3px        0.001772  0.000324  0.001710 -0.001746 -0.000213  0.000568
  4C   3py        0.000671 -0.000079 -0.003274  0.000738  0.000750 -0.002187
  4C   1dz2      -0.000051  0.000029  0.000034 -0.000031 -0.000000 -0.000031
  4C   1dxz       0.000000 -0.000000  0.000000  0.000000 -0.000000  0.000000
  4C   1dyz       0.000000  0.000000 -0.000000 -0.000000  0.000000  0.000000
  4C   1dx2y2     0.000008  0.000007  0.000037 -0.000016 -0.000015  0.000032
  4C   1dxy       0.000041 -0.000003 -0.000029  0.000028  0.000009  0.000000
  4C   2dz2      -0.000033 -0.000093  0.000090 -0.000048  0.000051 -0.000213
  4C   2dxz       0.000000  0.000000 -0.000000  0.000000  0.000000 -0.000000
  4C   2dyz       0.000000 -0.000000 -0.000000  0.000000  0.000000 -0.000000
  4C   2dx2y2     0.000591  0.000022 -0.001511  0.000786  0.000705 -0.001150
  4C   2dxy       0.000658 -0.000343  0.000009  0.000296 -0.000066  0.000066
  4C   1f0       -0.000000 -0.000000  0.000000 -0.000000 -0.000000 -0.000000
[...]
 --------------------------------------------------------------- 

   *********************
    MULT 1, ROOT 2 
   *********************

  Class V0_ijab :	 dE = -1.908056430045 
  Class Vm1_iab :	 dE = -0.189446062814 
  Class Vm2_ab  :	 dE = -0.012241724182 
  Class V1_ija  :	 dE = -0.111891764643 
  Class V2_ij   :	 dE = -0.011683579634 
  Class V0_ia   :	 dE = -0.071315702436 
  Class Vm1_a   :	 dE = -0.007234403285 
  Class V1_i    :	 dE = -0.007937436950 

 --------------------------------------------------------------- 
 	 Total Energy Correction : dE = -2.31980710398841
 --------------------------------------------------------------- 
 	 Reference  Energy       : E0 = -535.88159911582375
 --------------------------------------------------------------- 
 	 Total Energy (E0+dE)    : E  = -538.20140621981216
 --------------------------------------------------------------- 

-----------------------
 NEVPT2 TOTAL ENERGIES
-----------------------
# This can be used as input for the MRCI SOC block to replace
# the diagonal energies within the QDPT treatment. 
# Note that multiplicty blocks must be ordered in decending order e.g. mult 5,3,1! 

STATE   ROOT MULT  Energy/a.u.   MRCI SOC BLOCK INPUT (cm**-1)
   0:    0    1  -538.361578    EDIAG[0] -118156708.960079
   1:    1    1  -538.246330    EDIAG[1] -118131414.820177
   2:    2    1  -538.201406    EDIAG[2] -118121555.227173

-----------------------------
 NEVPT2 TRANSITION ENERGIES
------------------------------

LOWEST ROOT (ROOT 0, MULT 1) =   -538.361578412 Eh -14649.563 eV

STATE ROOT MULT  DE/a.u.     DE/eV    DE/cm**-1
   1:   1    1   0.115249     3.136  25294.1
   2:   2    1   0.160172     4.359  35153.7

--------------------------------------------
 NEVPT2 CORRECTION TO THE TRANSITION ENERGY
--------------------------------------------
STATE  ROOT MULT DE/a.u. DE/eV 	DE/cm**-1
   1:    1    1  -0.055208     -1.502 -12116.7

STATE  ROOT MULT DE/a.u. DE/eV 	DE/cm**-1
   2:    2    1  -0.118237     -3.217 -25950.1


--------------
TIMINGS NEVPT2
--------------

Sum of individual times        ...     1267.8 sec (100.0%)

   Integraltransformation      ...     1116.6 sec ( 88.1%)
   Building Fock and alike     ...       67.9 sec (  5.4%)
   Building D2,D1              ...        0.0 sec (  0.0%)
   Building D3                 ...        0.0 sec (  0.0%)
   Building D4                 ...        0.0 sec (  0.0%)
   All densities               ...        0.1 sec (  0.0%)
   Hole Densities              ...        0.0 sec (  0.0%)
   Re-Canonicalization         ...       82.9 sec (  6.5%)
   Classes Vijab               ...        0.2 sec (  0.0%)
   Class Viab                  ...        0.1 sec (  0.0%)
   Class Vab                   ...        0.0 sec (  0.0%)
   Class Vija                  ...        0.0 sec (  0.0%)
   Class Vij                   ...        0.0 sec (  0.0%)
   Class Via                   ...        0.0 sec (  0.0%)
   Class Va                    ...        0.0 sec (  0.0%)
   Class Vi                    ...        0.0 sec (  0.0%)
   All Classes                 ...        0.4 sec (  0.0%)

-------------------------------------------------------------
 Forming the transition density       ... done in 0.0 sec
-------------------------------------------------------------

--------------
CASSCF TIMINGS
--------------

Total time                       ...     2228.2 sec
Sum of individual times          ...     2227.4 sec (100.0%)

Calculation of AO operators
   F(Core) operator              ...      175.0 sec (  7.9%)
   G(Act) operator               ...      141.7 sec (  6.4%)
Calculation of MO transformed quantities
   J(MO) operators               ...      640.5 sec ( 28.7%)
   AO->MO one electron integrals ...        0.1 sec (  0.0%)
Configuration interaction steps
   CI-setup phase                ...        0.0 sec (  0.0%)
   CI-solution phase             ...        0.2 sec (  0.0%)
   Generation of densities       ...        0.0 sec (  0.0%)
Orbital improvement steps
   Orbital gradient              ...        0.1 sec (  0.0%)
   O(1) converger                ...        2.1 sec (  0.1%)
CPCM steps
   Total CPCM time               ...        0.0 sec (  0.0%)
PT2 
   NEVPT2 time                   ...     1267.8 sec ( 56.9%)
Properties                       ...        0.0 sec (  0.0%)
   SOC integral calculation      ...        0.0 sec (  0.0%)
   SSC RMEs (incl. integrals)    ...        0.0 sec (  0.0%)
   SOC RMEs                      ...        0.0 sec (  0.0%)

Maximum memory used throughout the entire CASSCF-calculation: 1974.7 MB


           ************************************************************
           *        Program running with 8 parallel MPI-processes     *
           *              working on a common directory               *
           ************************************************************

------------------------------------------------------------------------------
                         ORCA PROPERTY INTEGRAL CALCULATIONS
------------------------------------------------------------------------------

GBWName                                   ... orca.gbw
Number of atoms                           ...     24
Number of basis functions                 ...    672
Max core memory                           ...   1024 MB

Dipole integrals                          ... YES
Quadrupole integrals                      ...  NO
Linear momentum integrals                 ...  NO
Angular momentum integrals                ... YES
Higher moments length integrals           ...  NO
Higher moments velocity integrals         ...  NO
Kinetic energy integrals                  ...  NO
GIAO right hand sides                     ...  NO
GIAO dipole derivative integrals          ...  NO
SOC integrals                             ...  NO
EPR diamagnetic integrals (GIAO)          ...  NO
EPR gauge integrals                       ...  NO
Field gradient integrals                  ...  NO (   0 nuclei)
Spin-dipole/Fermi contact integrals       ...  NO (   0 nuclei)
Contact density integrals                 ...  NO (   0 nuclei)
Nucleus-orbit integrals                   ...  NO (   0 nuclei)
Geometric perturbations                   ...  NO (  24 nuclei)

Choice of electric origin   ... Center of mass
Position of electric origin ... (  0.0000, -0.0000,  0.0000) 
Choice of magnetic origin   ... GIAO
Position of magnetic origin ... (  0.0000,  0.0000,  0.0000) 

Calculating integrals                     ... Electric Dipole (Length)     done (  0.0 sec)
Calculating integrals                     ... Angular Momentum  (ElOri)    done (  0.0 sec)

Property integrals calculated in   0.1 sec

Maximum memory used throughout the entire PROPINT-calculation: 55.7 MB


           ************************************************************
           *        Program running with 8 parallel MPI-processes     *
           *              working on a common directory               *
           ************************************************************
-------------------------------------------------------------------------------
                              ORCA-CASSCF
-------------------------------------------------------------------------------

Setting up the integral package     ... done

PROPERTIES-SETTINGS:
  QDPT diagonal energies            ... NEVPT2 energies 


==========================================
CASSCF UV, CD spectra and dipole moments
==========================================

----------------------------------------------------------------------------------------------------
                     ABSORPTION SPECTRUM VIA TRANSITION ELECTRIC DIPOLE MOMENTS    
----------------------------------------------------------------------------------------------------
     Transition      Energy     Energy  Wavelength fosc(D2)      D2        DX        DY        DZ   
                      (eV)      (cm-1)    (nm)                 (au**2)    (au)      (au)      (au)  
----------------------------------------------------------------------------------------------------
  0-1A  ->  1-1A    4.638347   37410.8   267.3   0.338919584   2.98246   0.00000   1.72698   0.00000
  0-1A  ->  2-1A    7.575911   61103.9   163.7   0.000000000   0.00000  -0.00000   0.00000  -0.00000

------------------------------------------------------------------------------------------
                     CD SPECTRUM VIA TRANSITION ELECTRIC DIPOLE MOMENTS    
------------------------------------------------------------------------------------------
     Transition      Energy     Energy  Wavelength    R        MX        MY        MZ   
                      (eV)      (cm-1)    (nm)   (1e40*cgs)   (au)      (au)      (au)  
------------------------------------------------------------------------------------------
  0-1A  ->  1-1A    4.638347   37410.8   267.3   -0.00005  -0.00000   0.00000   0.00000
  0-1A  ->  2-1A    7.575911   61103.9   163.7    0.00000   0.00000  -0.00000  -0.00000


=====================================================================
CASSCF (NEVPT2 diagonal energies) UV, CD spectra and dipole moments
=====================================================================

----------------------------------------------------------------------------------------------------
                     ABSORPTION SPECTRUM VIA TRANSITION ELECTRIC DIPOLE MOMENTS    
----------------------------------------------------------------------------------------------------
     Transition      Energy     Energy  Wavelength fosc(D2)      D2        DX        DY        DZ   
                      (eV)      (cm-1)    (nm)                 (au**2)    (au)      (au)      (au)  
----------------------------------------------------------------------------------------------------
  0-1A  ->  1-1A    3.136073   25294.1   395.3   0.229149891   2.98246   0.00000   1.72698   0.00000
  0-1A  ->  2-1A    4.358507   35153.7   284.5   0.000000000   0.00000  -0.00000   0.00000  -0.00000

------------------------------------------------------------------------------------------
                     CD SPECTRUM VIA TRANSITION ELECTRIC DIPOLE MOMENTS    
------------------------------------------------------------------------------------------
     Transition      Energy     Energy  Wavelength    R        MX        MY        MZ   
                      (eV)      (cm-1)    (nm)   (1e40*cgs)   (au)      (au)      (au)  
------------------------------------------------------------------------------------------
  0-1A  ->  1-1A    3.136073   25294.1   395.3   -0.00005  -0.00000   0.00000   0.00000
  0-1A  ->  2-1A    4.358507   35153.7   284.5    0.00000   0.00000  -0.00000  -0.00000

--------------
CASSCF TIMINGS
--------------

Total time                       ...        1.5 sec
Sum of individual times          ...        1.4 sec ( 96.0%)

Calculation of AO operators
Calculation of MO transformed quantities
Configuration interaction steps
   CI-setup phase                ...        1.4 sec ( 96.0%)
Orbital improvement steps

Maximum memory used throughout the entire CASSCF-calculation: 88.6 MB

-------------------------   --------------------
FINAL SINGLE POINT ENERGY      -538.269771487658
-------------------------   --------------------



           ************************************************************
           *        Program running with 8 parallel MPI-processes     *
           *              working on a common directory               *
           ************************************************************

------------------------------------------------------------------------------
                              ORCA PROPERTY CALCULATIONS
------------------------------------------------------------------------------

GBWName                                 ... orca.gbw
Number of atoms                         ...     24
Number of basis functions               ...    672
Max core memory                         ...   1024 MB

Electric properties:
Dipole moment                           ... YES
Quadrupole moment                       ...  NO
Static polarizability (Dipole/Dipole)   ...  NO
Static polarizability (Dipole/Quad.)    ...  NO
Static polarizability (Quad./Quad.)     ...  NO
Static polarizability (Velocity)        ...  NO

Atomic electric properties:
Dipole moment                           ...  NO
Quadrupole moment                       ...  NO
Static polarizability                   ...  NO

Choice of electric origin               ... Center of mass
Position of electric origin             ...     0.000000    -0.000000     0.000000

General magnetic properties:
Magnetizability                         ...  NO

EPR properties:
g-Tensor (aka g-matrix)                 ...  NO
Zero-Field splitting spin-orbit         ...  NO
Zero-field splitting spin-spin          ...  NO
Hyperfine couplings                     ...  NO (   0 nuclei)
Quadrupole couplings                    ...  NO (   0 nuclei)
Contact density                         ...  NO (   0 nuclei)

NMR properties:
Chemical shifts                         ...  NO (   0 nuclei)
Spin-rotation constants                 ...  NO (   0 nuclei)
Spin-spin couplings                     ...  NO (   0 nuclei,    0 pairs)

Choice of magnetic origin               ... GIAO
Position of magnetic origin             ...     0.000000     0.000000     0.000000

Properties with geometric perturbations:
SCF Hessian                             ...  NO
IR spectrum                             ...  NO
VCD spectrum                            ...  NO
X-ray spectroscopy properties:
SCF XES/XAS/RIXS spectra                ...  NO


-------------
DIPOLE MOMENT
-------------

Method             : CASSCF
Type of density    : Electron Density
Level              : Unrelaxed density
State              :  -1
Multiplicity       :  -1
Irrep              :   0
Energy             :  -536.0103868311965698 Eh
Relativity type    : 
Basis              : AO
                                X                 Y                 Z
Electronic contribution:      0.000000238      -0.000000121       0.000000839
Nuclear contribution   :     -0.000000204       0.000000161      -0.000001042
                        -----------------------------------------
Total Dipole Moment    :      0.000000034       0.000000041      -0.000000204
                        -----------------------------------------
Magnitude (a.u.)       :      0.000000210
Magnitude (Debye)      :      0.000000535



--------------------
Rotational spectrum 
--------------------
 
Rotational constants in cm-1:             0.071795             0.015152             0.012512 
Rotational constants in MHz :          2152.348283           454.247650           375.086578 

Dipole components along the rotational axes: 
x,y,z [a.u.] :     0.000000    -0.000000    -0.000000 
x,y,z [Debye]:     0.000000    -0.000000    -0.000001 

 

Dipole moment calculation done in   0.0 sec 

Maximum memory used throughout the entire PROP-calculation: 47.2 MB

--------------------------------
SUGGESTED CITATIONS FOR THIS RUN
--------------------------------

Below you find a list of papers that are relevant to this ORCA run
We neither can nor want to force you to cite these papers, but we appreciate if you do
You receive ORCA, which is the product of decades of hard work by many enthusiastic individuals, for free
The only thing we kindly ask in return is that you cite our papers,
We deeply appreciate it, if you show your appreciation for ORCA by not just citing the generic ORCA reference.

Please note that relegating all ORCA citations to the supporting information does *not* help us.
SI sections are not indexed - citations you put there will not count into any citation statistics
But we need these citations in order to attract the funding resources that allow us to do what we are doing

Therefore, if you are a happy ORCA user, please consider citing a few of the papers listed below in the main body of your paper

In addition to the list printed below, the program has created the file orca.bibtex that contains the list in bibtex format
You can import this file easily into all common literature databanks and citation aid programs


List of essential papers. We consider these as the minimum necessary citations

  1. Neese,F.
     Software update: the ORCA program system, version 5.0
     WIRES Comput. Molec. Sci., 2022 12(1)e1606
     doi.org/10.1002/wcms.1606

List of papers to cite with high priority. The work reported in these papers was absolutely
necessary for this run to complete.
Our perspective: the developers of density functionals and basis sets usually get cited in chemistry papers
Good! But without the algorithms to do something with them, the functionals or basis sets would not do anything.
Hence, in our opinion, the algorithm design and method developments papers are equally worthy of getting cited

  1. Kollmar,C.; Sivalingam,K.; Helmich-Paris,B.; Angeli,C.; Neese,F.
     A perturbation-based super-CI approach for the orbital optimization of a CASSCF wave function
     J. Comput. Chem., 2019 40 1463-1470
     doi.org/10.1002/jcc.25801
  2. Kollmar,C.; Sivalingam,K.; Neese,F.
     An efficient implementation of the NEVPT2 and CASPT2 methods avoiding higher-order density matrices
     J. Chem. Phys., 2021 155 234104
     doi.org/10.1063/5.0072129
  3. Guo,Y.; Sivalingam,K.; Neese,F.
     Approximations of density matrices in N-electron valence state second-order perturbation theory (NEVPT2). I. Revisiting the NEVPT2 construction
     J. Chem. Phys., 2021 154 214111
  4. Neese,F.
     The SHARK Integral Generation and Digestion System
     J. Comp. Chem., 2022  1-16
     doi.org/10.1002/jcc.26942
  5. Ugandi,M.; Roemelt,M.
     A recursive formulation of one-electron coupling coefficients for spin-adapted configuration interaction calculations featuring many unpaired electrons
     Int. J. Quantum Chem., 2023 123 e27045
     doi.org/10.1002/qua.27045

List of suggested additional citations. These are papers that are important in the 'surrounding' of 
of this run, or papers that preceded the highly important papers. If you like your results we are grateful for a citation.

  1. Neese,F.
     The ORCA program system
     WIRES Comput. Molec. Sci., 2012 2(1)73-78
     doi.org/10.1002/wcms.81
  2. Schapiro,I.; Sivalingam,K.; Neese,F.
     Assessment of n-Electron Valence State Perturbation Theory for Vertical Excitation Energies
     J. Theo. Comp. Chem., 2013 9 3567-3580
     doi.org/10.1021/ct400136y
  3. Neese,F.
     Software update: the ORCA program system, version 4.0
     WIRES Comput. Molec. Sci., 2018 8(1)1-6
     doi.org/10.1002/wcms.1327
  4. Neese,F.; Wennmohs,F.; Becker,U.; Riplinger,C.
     The ORCA quantum chemistry program package
     J. Chem. Phys., 2020 152 Art. No. L224108
     doi.org/10.1063/5.0004608
  5. Guo,Y.; Sivalingam,K.; Kollmar,C.; Neese,F.
     Approximations of density matrices in N-electron valence state second-order perturbation theory (NEVPT2). II. The full rank NEVPT2 (FR-NEVPT2) formulation
     J. Chem. Phys., 2021 154 214113

List of optional additional citations

  1. Neese,F.
     Approximate second-order SCF convergence for spin unrestricted wavefunctions
     Chem. Phys. Lett., 2000 325(1-3)93-98
     doi.org/10.1016/s0009-2614(00)00662-x

Timings for individual modules:

Sum of individual times          ...     2236.334 sec (=  37.272 min)
Startup calculation              ...        2.413 sec (=   0.040 min)   0.1 %
SCF iterations                   ...        1.030 sec (=   0.017 min)   0.0 %
CASSCF iterations                ...     2231.940 sec (=  37.199 min)  99.8 %
Property integrals               ...        0.492 sec (=   0.008 min)   0.0 %
Property calculations            ...        0.460 sec (=   0.008 min)   0.0 %
                             ****ORCA TERMINATED NORMALLY****
TOTAL RUN TIME: 0 days 0 hours 37 minutes 16 seconds 703 msec
