
                                 *****************
                                 * O   R   C   A *
                                 *****************

                                            #,                                       
                                            ###                                      
                                            ####                                     
                                            #####                                    
                                            ######                                   
                                           ########,                                 
                                     ,,################,,,,,                         
                               ,,#################################,,                 
                          ,,##########################################,,             
                       ,#########################################, ''#####,          
                    ,#############################################,,   '####,        
                  ,##################################################,,,,####,       
                ,###########''''           ''''###############################       
              ,#####''   ,,,,##########,,,,          '''####'''          '####       
            ,##' ,,,,###########################,,,                        '##       
           ' ,,###''''                  '''############,,,                           
         ,,##''                                '''############,,,,        ,,,,,,###''
      ,#''                                            '''#######################'''  
     '                                                          ''''####''''         
             ,#######,   #######,   ,#######,      ##                                
            ,#'     '#,  ##    ##  ,#'     '#,    #''#        ,####,   ,####,        
            ##       ##  ##   ,#'  ##            #'  '#       #'       #'  '#        
            ##       ##  #######   ##           ,######,      #####,   #    #        
            '#,     ,#'  ##    ##  '#,     ,#' ,#      #,     #,   #   #,  ,#        
             '#######'   ##     ##  '#######'  #'      '#     '####' # '####'        



                #########################################################
                #                        -***-                          #
                #          Department of theory and spectroscopy        #
                #                                                       #
                #                      Frank Neese                      #
                #                                                       #
                #     Directorship, Architecture, Infrastructure        #
                #                    SHARK, DRIVERS                     #
                #        Core code/Algorithms in most modules           #
                #                                                       #
                #        Max Planck Institute fuer Kohlenforschung      #
                #                Kaiser Wilhelm Platz 1                 #
                #                 D-45470 Muelheim/Ruhr                 #
                #                      Germany                          #
                #                                                       #
                #                  All rights reserved                  #
                #                        -***-                          #
                #########################################################


                         Program Version 6.0.1  -  RELEASE   -


 With contributions from (in alphabetic order):
[Max-Planck-Institut fuer Kohlenforschung]                               
  Daniel Aravena         : Magnetic Suceptibility                        
  Michael Atanasov       : Ab Initio Ligand Field Theory (pilot matlab implementation)
  Alexander A. Auer      : GIAO ZORA, VPT2 properties, NMR spectrum      
  Ute Becker             : All parallelization in ORCA, NUMFREQ, NUMCALC 
  Giovanni Bistoni       : ED, misc. LED, open-shell LED, HFLD           
  Martin Brehm           : Molecular dynamics                            
  Dmytro Bykov           : pre 5.0 version of the SCF Hessian            
  Marcos Casanova-Páez   : Triplet and SCS-CIS(D). UHF-(DLPNO)-IP/EA/STEOM-CCSD. UHF-CVS-IP/STEOM-CCSD   
  Vijay G. Chilkuri      : MRCI spin determinant printing, contributions to CSF-ICE 
  Pauline Colinet        : FMM embedding                                 
  Dipayan Datta          : RHF DLPNO-CCSD density                        
  Achintya Kumar Dutta   : EOM-CC, STEOM-CC                              
  Nicolas Foglia         : Exact transition moments, OPA infrastructure, MCD improvements    
  Dmitry Ganyushin       : Spin-Orbit,Spin-Spin,Magnetic field MRCI      
  Miquel Garcia-Rates    : C-PCM and meta-GGA Hessian, CCSD/C-PCM, Gaussian charge scheme 
  Tiago L. C. Gouveia    : GS-ROHF, GS-ROCIS                             
  Yang Guo               : DLPNO-NEVPT2, F12-NEVPT2, CIM, IAO-localization        
  Andreas Hansen         : Spin unrestricted coupled pair/coupled cluster methods 
  Ingolf Harden          : AUTO-CI MPn and infrastructure                
  Benjamin Helmich-Paris : MC-RPA, TRAH-(SCF,CASSCF), AVAS, COSX integrals, SCF dyn. polar. 
  Lee Huntington         : MR-EOM, pCC                                   
  Robert Izsak           : Overlap fitted RIJCOSX, COSX-SCS-MP3, EOM     
  Riya Kayal             : Wick's Theorem for AUTO-CI, AUTO-CI UHF-CCSDT 
  Emily Kempfer          : AUTO-CI, RHF CISDT and CCSDT                  
  Christian Kollmar      : KDIIS, OOCD, Brueckner-CCSD(T), CCSD density, CASPT2, CASPT2-K, improved NEVPT2 
  Axel Koslowski         : Symmetry handling                             
  Simone Kossmann        : meta-GGA functionals, TD-DFT gradient, OOMP2, (MP2 Hessian; deprecated post 5.0) 
  Lucas Lang             : DCDCAS                                        
  Marvin Lechner         : AUTO-CI (C++ implementation), FIC-MRCC        
  Spencer Leger          : CASSCF response                               
  Dagmar Lenk            : GEPOL surface, SMD, ORCA-2-JSON               
  Dimitrios Liakos       : Extrapolation schemes; Compound Job, initial MDCI parallelization 
  Dimitrios Manganas     : Further ROCIS development; embedding schemes. LFT, Crystal Embedding 
  Dimitrios Pantazis     : SARC Basis sets                               
  Anastasios Papadopoulos: AUTO-CI, single reference methods and gradients 
  Taras Petrenko         : pre 6.0 DFT Hessian and TD-DFT gradient, (ASA, deprecated), ECA, 1-Electron XAS/XES, NRVS 
  Peter Pinski           : DLPNO-MP2, DLPNO-MP2 Gradient                 
  Christoph Reimann      : Effective Core Potentials                     
  Marius Retegan         : Local ZFS, SOC                                
  Christoph Riplinger    : Optimizer, TS searches, QM/MM, DLPNO-CCSD(T), (RO)-DLPNO pert. Triples 
  Michael Roemelt        : Original ROCIS implementation                 
  Masaaki Saitow         : Open-shell DLPNO-CCSD energy and density      
  Barbara Sandhoefer     : DKH picture change effects                    
  Kantharuban Sivalingam : CASSCF convergence/infrastructure, NEVPT2 and variants, FIC-MRCI 
  Bernardo de Souza      : ESD, SOC TD-DFT                               
  Georgi L. Stoychev     : AutoAux, RI-MP2 NMR, DLPNO-MP2 response, X2C  
  Van Anh Tran           : RI-MP2 g-tensors                              
  Willem Van den Heuvel  : Paramagnetic NMR                              
  Zikuan Wang            : NOTCH, Electric field optimization            
  Frank Wennmohs         : Technical directorship and infrastructure     
  Hang Xu                : AUTO-CI-Response properties                   
                                                                         
[FACCTs GmbH]                                                            
  Markus Bursch, Miquel Garcia-Rates, Christoph Riplinger, Bernardo de Souza, Georgi L. Stoychev 
                                                                 
  APM, Basis sets (HGBS, AHGBS, def-TZVP (Ac-Lr), def2-XVPD (La-Lu)), CI-OPT, improved COSX, DLPNO-Multilevel,           
  DOCKER, DRACO, updates on ESD, GOAT, IRC, LR-CPCM, MBIS, meta-GGA TD-DFT gradient, ML-optimized integration grids, 
  MM, NACMEs, nearIR, NEB, NEB-TS, NL-DFT gradient (VV10), 2- and 3-layer-ONIOM, interface openCOSMO-RS, QMMM,   
  Crystal-QMMM, SF, symmetry and pop. for TD-DFT, r2SCAN hybrids, SOLVATOR                                   
                                                                         
[Other institutions]                                                     
  V. Asgeirsson          : NEB                                           
  Christoph Bannwarth    : sTDA-DFT, sTD-DFT, PBEh-3c, B97-3c, D3        
  Sebastian Ehlert       : rSCAN, r2SCAN, r2SCAN-3c, D4, dhf basis sets  
  Marvin Friede          : D4 for Fr, Ra, Ac-Lr                          
  Lars Goerigk           : TD-DFT with DH, B97 family of functionals     
  Stefan Grimme          : VdW corrections, initial TS optimization, DFT functionals, gCP, sTDA/sTD-DF 
  Waldemar Hujo          : DFT-NL                                        
  H. Jonsson             : NEB                                           
  Holger Kruse           : gCP                                           
  Marcel Mueller         : wB97X-3c, vDZP basis set                      
  Hagen Neugebauer       : wr2SCAN                                       
  Tobias Risthaus        : range-separated hybrid DFT                    
  Lukas Wittmann         : regularized MP2, r2SCAN double-hybrids, wr2SCAN        
                                                                         
We gratefully acknowledge several colleagues who have allowed us to      
interface, adapt or use parts of their codes:                            
  Ed Valeev, F. Pavosevic, A. Kumar             : LibInt (2-el integral package), F12 methods 
  Garnet Chan, S. Sharma, J. Yang, R. Olivares  : DMRG                   
  Ulf Ekstrom                                   : XCFun DFT Library      
  Mihaly Kallay                                 : mrcc  (arbitrary order and MRCC methods)
  Frank Weinhold                                : gennbo (NPA and NBO analysis)           
  Simon Mueller                                 : openCOSMO-RS                            
  Christopher J. Cramer and Donald G. Truhlar   : smd solvation model                     
  S Lehtola, MJT Oliveira, MAL Marques          : LibXC Library                           
  Liviu Ungur et al                             : ANISO software                          


 Your calculation uses the libint2 library for the computation of 2-el integrals
 For citations please refer to: http://libint.valeyev.net

 Your ORCA version has been built with support for libXC version: 6.2.2
 For citations please refer to: https://libxc.gitlab.io

 This ORCA versions uses:
   CBLAS   interface :  Fast vector & matrix operations
   LAPACKE interface :  Fast linear algebra routines
   SCALAPACK package :  Parallel linear algebra routines
   Shared memory     :  Shared parallel matrices


Reading of a custom orbital basis requested
Basis file: /Users/johannes/Documents/Uni/BasisSets/cc-pvtz.bas
Basis read successfully!



***************************************
The coordinates will be read from file: ethene_opt_MP2_cc-pvtz.xyz
***************************************


================================================================================

----- Orbital basis set information -----
Basis read from file: /Users/johannes/Documents/Uni/BasisSets/cc-pvtz.bas

================================================================================
                                        WARNINGS
                       Please study these warnings very carefully!
================================================================================

WARNING: Old DensityContainer found on disk!
         Will remove this file - 
         If you want to keep old densities, please start your calculation with a different basename. 


================================================================================
                                       INPUT FILE
================================================================================
NAME = orca.inp
|  1> ! PAL8 nopop tightscf printmos RHF
|  2> %basis
|  3> GTOName = "/Users/johannes/Documents/Uni/BasisSets/cc-pvtz.bas"
|  4> end
|  5> * xyzfile 0 1 ethene_opt_MP2_cc-pvtz.xyz
|  6> 
|  7>                          ****END OF INPUT****
================================================================================

                       ****************************
                       * Single Point Calculation *
                       ****************************

---------------------------------
CARTESIAN COORDINATES (ANGSTROEM)
---------------------------------
  C      0.666022    0.000000    0.000000
  C     -0.666022   -0.000000   -0.000000
  H      1.227911    0.922822    0.000000
  H     -1.227912   -0.922822    0.000000
  H     -1.227912    0.922822    0.000000
  H      1.227912   -0.922822    0.000000

----------------------------
CARTESIAN COORDINATES (A.U.)
----------------------------
  NO LB      ZA    FRAG     MASS         X           Y           Z
   0 C     6.0000    0    12.011    1.258599    0.000000    0.000000
   1 C     6.0000    0    12.011   -1.258600   -0.000000   -0.000000
   2 H     1.0000    0     1.008    2.320416    1.743881    0.000000
   3 H     1.0000    0     1.008   -2.320417   -1.743881    0.000000
   4 H     1.0000    0     1.008   -2.320417    1.743881    0.000000
   5 H     1.0000    0     1.008    2.320417   -1.743880    0.000000

--------------------------------
INTERNAL COORDINATES (ANGSTROEM)
--------------------------------
 C      0   0   0     0.000000000000     0.00000000     0.00000000
 C      1   0   0     1.332044248250     0.00000000     0.00000000
 H      1   2   0     1.080425862755   121.33647836     0.00000000
 H      2   1   3     1.080425870412   121.33647823   180.00000000
 H      2   1   3     1.080425904588   121.33648119     0.00000000
 H      1   2   3     1.080425918300   121.33648226   180.00000000

---------------------------
INTERNAL COORDINATES (A.U.)
---------------------------
 C      0   0   0     0.000000000000     0.00000000     0.00000000
 C      1   0   0     2.517198827458     0.00000000     0.00000000
 H      1   2   0     2.041708988613   121.33647836     0.00000000
 H      2   1   3     2.041709003082   121.33647823   180.00000000
 H      2   1   3     2.041709067666   121.33648119     0.00000000
 H      1   2   3     2.041709093578   121.33648226   180.00000000

---------------------
BASIS SET INFORMATION
---------------------
There are 2 groups of distinct atoms

 Group   1 Type C   : 22s7p2d1f contracted to 4s3p2d1f pattern {101011/511/11/1}
 Group   2 Type H   : 7s2p1d contracted to 3s2p1d pattern {511/11/1}

Atom   0C    basis set group =>   1
Atom   1C    basis set group =>   1
Atom   2H    basis set group =>   2
Atom   3H    basis set group =>   2
Atom   4H    basis set group =>   2
Atom   5H    basis set group =>   2


           ************************************************************
           *        Program running with 8 parallel MPI-processes     *
           *              working on a common directory               *
           ************************************************************
------------------------------------------------------------------------------
                             ORCA STARTUP CALCULATIONS
------------------------------------------------------------------------------
------------------------------------------------------------------------------
                   ___                                                        
                  /   \      - P O W E R E D   B Y -                         
                 /     \                                                     
                 |  |  |   _    _      __       _____    __    __             
                 |  |  |  | |  | |    /  \     |  _  \  |  |  /  |          
                  \  \/   | |  | |   /    \    | | | |  |  | /  /          
                 / \  \   | |__| |  /  /\  \   | |_| |  |  |/  /          
                |  |  |   |  __  | /  /__\  \  |    /   |      \           
                |  |  |   | |  | | |   __   |  |    \   |  |\   \          
                \     /   | |  | | |  |  |  |  | |\  \  |  | \   \       
                 \___/    |_|  |_| |__|  |__|  |_| \__\ |__|  \__/        
                                                                              
                      - O R C A' S   B I G   F R I E N D -                    
                                      &                                       
                       - I N T E G R A L  F E E D E R -                       
                                                                              
 v1 FN, 2020, v2 2021, v3 2022-2024                                           
------------------------------------------------------------------------------


----------------------
SHARK INTEGRAL PACKAGE
----------------------

Number of atoms                             ...      6
Number of basis functions                   ...    132
Number of shells                            ...     60
Maximum angular momentum                    ...      3
Integral batch strategy                     ... SHARK/LIBINT Hybrid
RI-J (if used) integral strategy            ... SPLIT-RIJ (Revised 2003 algorithm where possible)
Printlevel                                  ...      1
Contraction scheme used                     ... PARTIAL GENERAL contraction
Prescreening option                         ... SCHWARTZ
   Thresh                                   ... 2.500e-11
   Tcut                                     ... 2.500e-12
   Tpresel                                  ... 2.500e-12 
Coulomb Range Separation                    ... NOT USED
Exchange Range Separation                   ... NOT USED
Multipole approximations                    ... NOT USED
Finite Nucleus Model                        ... NOT USED
CABS basis                                  ... NOT available
Auxiliary Coulomb fitting basis             ... NOT available
Auxiliary J/K fitting basis                 ... NOT available
Auxiliary Correlation fitting basis         ... NOT available
Auxiliary 'external' fitting basis          ... NOT available

Checking pre-screening integrals            ... done (  0.0 sec) Dimension = 60
Save PGC pre-screening integrals            ... done (  0.0 sec) Dimension = 60
Calculate PGC overlap integrals             ... done (  0.0 sec) Dimension = 44
Calculating pre-screening integrals (ORCA)  ... done (  0.0 sec) Dimension = 44
Check shell pair data                       ... done (  0.0 sec)
Shell pair information
Shell pair cut-off parameter TPreSel        ...   2.5e-12
Total number of shell pairs                 ...      1830
Shell pairs after pre-screening             ...      1794
Total number of primitive shell pairs       ...      3630
Primitive shell pairs kept                  ...      3429
          la=0 lb=0:    630 shell pairs
          la=1 lb=0:    504 shell pairs
          la=1 lb=1:    105 shell pairs
          la=2 lb=0:    288 shell pairs
          la=2 lb=1:    112 shell pairs
          la=2 lb=2:     36 shell pairs
          la=3 lb=0:     72 shell pairs
          la=3 lb=1:     28 shell pairs
          la=3 lb=2:     16 shell pairs
          la=3 lb=3:      3 shell pairs

Calculating one electron integrals          ... done (  0.0 sec)
Calculating Nuclear repulsion               ... done (  0.0 sec) ENN=     33.433605360965 Eh

Diagonalization of the overlap matrix:
Smallest eigenvalue                        ... 8.030e-04
Time for diagonalization                   ...    0.001 sec
Threshold for overlap eigenvalues          ... 1.000e-07
Number of eigenvalues below threshold      ... 0
Time for construction of square roots      ...    0.001 sec
Total time needed                          ...    0.002 sec

-------------------
DFT GRID GENERATION
-------------------

General Integration Accuracy     IntAcc      ... 4.388
Radial Grid Type                 RadialGrid  ... OptM3 with GC (2021)
Angular Grid (max. ang.)         AngularGrid ... 4 (Lebedev-302)
Angular grid pruning method      GridPruning ... 4 (adaptive)
Weight generation scheme         WeightScheme... mBecke (2022)
Basis function cutoff            BFCut       ... 1.0000e-11
Integration weight cutoff        WCut        ... 1.0000e-14
Partially contracted basis set               ... off
Rotationally invariant grid construction     ... off
Angular grids for H and He will be reduced by one unit

Total number of grid points                  ...    25284
Total number of batches                      ...      398
Average number of points per batch           ...       63
Average number of grid points per atom       ...     4214

---------------------
SHARK GRID GENERATION
---------------------

General Integration Accuracy     IntAcc      ... 4.388
Radial Grid Type                 RadialGrid  ... OptM3 with GC (2021)
Angular Grid (max. ang.)         AngularGrid ... 4 (Lebedev-302)
Angular grid pruning method      GridPruning ... 4 (adaptive)
Weight generation scheme         WeightScheme... mBecke (2022)
Basis function cutoff            BFCut       ... 1.0000e-11
Integration weight cutoff        WCut        ... 1.0000e-14
Partially contracted basis set               ... off
Rotationally invariant grid construction     ... off
Angular grids for H and He will be reduced by one unit
Steep s-basis detected: some atoms will have their radial
                        grid points doubled.

Total number of grid points                  ...    37638
Total number of batches                      ...      592
Average number of points per batch           ...       63
Average number of grid points per atom       ...     6273
Initializing property integral containers    ... done (  0.0 sec)

SHARK setup successfully completed in   0.3 seconds

Maximum memory used throughout the entire STARTUP-calculation: 25.3 MB


           ************************************************************
           *        Program running with 8 parallel MPI-processes     *
           *              working on a common directory               *
           ************************************************************
-------------------------------------------------------------------------------
                                 ORCA GUESS
                   Start orbitals & Density for SCF / CASSCF
-------------------------------------------------------------------------------

------------
SCF SETTINGS
------------
Hamiltonian:
 Ab initio Hamiltonian  Method          .... Hartree-Fock(GTOs)


General Settings:
 Integral files         IntName         .... orca
 Hartree-Fock type      HFTyp           .... RHF
 Total Charge           Charge          ....    0
 Multiplicity           Mult            ....    1
 Number of Electrons    NEL             ....   16
 Basis Dimension        Dim             ....  116
 Nuclear Repulsion      ENuc            ....     33.4336053610 Eh

Convergence Acceleration:
 AO-DIIS                CNVDIIS         .... on
   Start iteration      DIISMaxIt       ....    12
   Startup error        DIISStart       ....  0.200000
   # of expansion vecs  DIISMaxEq       ....     5
   Bias factor          DIISBfac        ....   1.050
   Max. coefficient     DIISMaxC        ....  10.000
 MO-DIIS                CNVKDIIS        .... off
 Trust-Rad. Augm. Hess. CNVTRAH         .... auto
   Auto Start mean grad. ratio tolernc. ....  1.125000
   Auto Start start iteration           ....    50
   Auto Start num. interpolation iter.  ....    10
   Max. Number of Micro iterations      ....    24
   Max. Number of Macro iterations      .... Maxiter - #DIIS iter
   Number of Davidson start vectors     ....     2
   Converg. threshold    (grad. norm)   ....   1.000e-05
   Grad. Scal. Fac. for Micro threshold ....   0.100
   Minimum threshold for Micro iter.    ....   1.000e-02
   NR start threshold (gradient norm)   ....   1.000e-04
   Initial trust radius                 ....   0.400
   Minimum AH scaling param. (alpha)    ....   1.000
   Maximum AH scaling param. (alpha)    .... 1000.000
   Quad. conv. algorithm                .... NR
   White noise on init. David. guess    .... on
   Maximum white noise                  ....   0.010
   Pseudo random numbers                .... off
   Inactive MOs                         .... canonical
   Orbital update algorithm             .... Taylor
   Preconditioner                       .... Diag
   Full preconditioner red. dimension   ....   250
 SOSCF                  CNVSOSCF        .... on
   Start iteration      SOSCFMaxIt      ....   150
   Startup grad/error   SOSCFStart      ....  0.003300
   Hessian update       SOSCFHessUp     .... L-BFGS
 Level Shifting         CNVShift        .... on
   Level shift para.    LevelShift      ....    0.2500
   Turn off err/grad.   ShiftErr        ....    0.0010
 Zerner damping         CNVZerner       .... off
 Static damping         CNVDamp         .... on
   Fraction old density DampFac         ....    0.7000
   Max. Damping (<1)    DampMax         ....    0.9800
   Min. Damping (>=0)   DampMin         ....    0.0000
   Turn off err/grad.   DampErr         ....    0.1000

SCF Procedure:
 Maximum # iterations   MaxIter         ....   125
 SCF integral mode      SCFMode         .... Direct
   Integral package                     .... SHARK and LIBINT hybrid scheme
 Reset frequency        DirectResetFreq ....    20
 Integral Threshold     Thresh          ....  2.500e-11 Eh
 Primitive CutOff       TCut            ....  2.500e-12 Eh

Convergence Tolerance:
 Convergence Check Mode ConvCheckMode   .... Total+1el-Energy
 Convergence forced     ConvForced      .... 0
 Energy Change          TolE            ....  1.000e-08 Eh
 1-El. energy change                    ....  1.000e-05 Eh
 Orbital Gradient       TolG            ....  1.000e-05
 Orbital Rotation angle TolX            ....  1.000e-05
 DIIS Error             TolErr          ....  5.000e-07

------------------------------
INITIAL GUESS: MODEL POTENTIAL
------------------------------
Loading Hartree-Fock densities                     ... done
Calculating cut-offs                               ... done
Initializing the effective Hamiltonian             ... done
Setting up the integral package (SHARK)            ... done
Starting the Coulomb interaction                   ... done (   0.0 sec)
Making the grid                                    ... done (   0.0 sec)
Mapping shells                                     ... done
Starting the XC term evaluation                    ... done (   0.0 sec)
Transforming the Hamiltonian                       ... done (   0.0 sec)
Diagonalizing the Hamiltonian                      ... done (   0.0 sec)
Back transforming the eigenvectors                 ... done (   0.0 sec)
Now organizing SCF variables                       ... done
                      ------------------
                      INITIAL GUESS DONE (   0.1 sec)
                      ------------------
             **** ENERGY FILE WAS UPDATED (orca.en.tmp) ****
Finished Guess after   0.2 sec
Maximum memory used throughout the entire GUESS-calculation: 7.3 MB


           ************************************************************
           *        Program running with 8 parallel MPI-processes     *
           *              working on a common directory               *
           ************************************************************

-------------------------------------------------------------------------------------------
                                      ORCA LEAN-SCF
                              memory conserving SCF solver
-------------------------------------------------------------------------------------------

----------------------------------------D-I-I-S--------------------------------------------
Iteration    Energy (Eh)           Delta-E    RMSDP     MaxDP     DIISErr   Damp  Time(sec)
-------------------------------------------------------------------------------------------
               ***  Starting incremental Fock matrix formation  ***
    1    -77.9309615458345064     0.00e+00  5.61e-03  1.55e-01  1.59e-01  0.700   0.1
    2    -77.9775147511601432    -4.66e-02  4.21e-03  1.16e-01  1.15e-01  0.700   0.1
                               ***Turning on AO-DIIS***
    3    -78.0061267359916997    -2.86e-02  2.41e-03  6.46e-02  8.79e-02  0.700   0.1
    4    -78.0242412132679135    -1.81e-02  5.37e-03  1.43e-01  6.30e-02  0.000   0.1
    5    -78.0638089015470342    -3.96e-02  2.09e-04  5.55e-03  4.58e-03  0.000   0.1
                              *** Initializing SOSCF ***
---------------------------------------S-O-S-C-F--------------------------------------
Iteration    Energy (Eh)           Delta-E    RMSDP     MaxDP     MaxGrad    Time(sec)
--------------------------------------------------------------------------------------
    6    -78.0638837655512532    -7.49e-05  9.19e-05  1.79e-03  1.77e-03     0.1
               *** Restarting incremental Fock matrix formation ***
    7    -78.0638957900848993    -1.20e-05  3.20e-05  7.29e-04  3.47e-04     0.1
    8    -78.0638966627648472    -8.73e-07  1.55e-05  3.56e-04  1.12e-04     0.1
    9    -78.0638967726771256    -1.10e-07  8.85e-07  1.91e-05  3.75e-06     0.1
   10    -78.0638967727417281    -6.46e-11  2.84e-07  6.45e-06  1.24e-06     0.1
                 **** Energy Check signals convergence ****

               *****************************************************
               *                     SUCCESS                       *
               *           SCF CONVERGED AFTER  10 CYCLES          *
               *****************************************************

             **** ENERGY FILE WAS UPDATED (orca.en.tmp) ****

----------------
TOTAL SCF ENERGY
----------------

Total Energy       :        -78.06389677274173 Eh           -2124.22662 eV

Components:
Nuclear Repulsion  :         33.43360536096482 Eh             909.77465 eV
Electronic Energy  :       -111.49750213370655 Eh           -3034.00128 eV
One Electron Energy:       -170.20506704286487 Eh           -4631.51534 eV
Two Electron Energy:         58.70756490915832 Eh            1597.51406 eV

Virial components:
Potential Energy   :       -156.00988580871297 Eh           -4245.24482 eV
Kinetic Energy     :         77.94598903597125 Eh            2121.01819 eV
Virial Ratio       :          2.00151268510707

---------------
SCF CONVERGENCE
---------------

  Last Energy change         ...    6.4603e-11  Tolerance :   1.0000e-08
  Last MAX-Density change    ...    6.4532e-06  Tolerance :   1.0000e-07
  Last RMS-Density change    ...    2.8446e-07  Tolerance :   5.0000e-09
  Last DIIS Error            ...    1.7705e-03  Tolerance :   5.0000e-07
  Last Orbital Gradient      ...    1.2410e-06  Tolerance :   1.0000e-05
  Last Orbital Rotation      ...    1.8504e-06  Tolerance :   1.0000e-05


----------------
ORBITAL ENERGIES
----------------

  NO   OCC          E(Eh)            E(eV) 
   0   2.0000     -11.228959      -305.5555 
   1   2.0000     -11.227236      -305.5086 
   2   2.0000      -1.033152       -28.1135 
   3   2.0000      -0.792122       -21.5547 
   4   2.0000      -0.643607       -17.5134 
   5   2.0000      -0.586221       -15.9519 
   6   2.0000      -0.507259       -13.8032 
   7   2.0000      -0.376413       -10.2427 
   8   0.0000       0.152212         4.1419 
   9   0.0000       0.159215         4.3325 
  10   0.0000       0.187509         5.1024 
  11   0.0000       0.190833         5.1928 
  12   0.0000       0.241130         6.5615 
  13   0.0000       0.367593        10.0027 
  14   0.0000       0.373387        10.1604 
  15   0.0000       0.442032        12.0283 
  16   0.0000       0.446696        12.1552 
  17   0.0000       0.486400        13.2356 
  18   0.0000       0.565583        15.3903 
  19   0.0000       0.589749        16.0479 
  20   0.0000       0.595500        16.2044 
  21   0.0000       0.636418        17.3178 
  22   0.0000       0.639158        17.3924 
  23   0.0000       0.678536        18.4639 
  24   0.0000       0.694542        18.8994 
  25   0.0000       0.792735        21.5714 
  26   0.0000       0.829854        22.5815 
  27   0.0000       0.854663        23.2566 
  28   0.0000       0.877174        23.8691 
  29   0.0000       0.988713        26.9042 
  30   0.0000       1.080468        29.4010 
  31   0.0000       1.098158        29.8824 
  32   0.0000       1.182964        32.1901 
  33   0.0000       1.213486        33.0206 
  34   0.0000       1.221712        33.2445 
  35   0.0000       1.229299        33.4509 
  36   0.0000       1.298520        35.3345 
  37   0.0000       1.321073        35.9482 
  38   0.0000       1.377601        37.4864 
  39   0.0000       1.472564        40.0705 
  40   0.0000       1.481367        40.3101 
  41   0.0000       1.551249        42.2116 
  42   0.0000       1.588038        43.2127 
  43   0.0000       1.597309        43.4650 
  44   0.0000       1.614518        43.9333 
  45   0.0000       1.808836        49.2209 
  46   0.0000       1.832878        49.8751 
  47   0.0000       1.895894        51.5899 
  48   0.0000       2.311882        62.9095 
  49   0.0000       2.366515        64.3961 
  50   0.0000       2.552544        69.4583 
  51   0.0000       2.554202        69.5034 
  52   0.0000       2.613682        71.1219 
  53   0.0000       2.652511        72.1785 
  54   0.0000       2.716755        73.9267 
  55   0.0000       2.741974        74.6129 
  56   0.0000       2.895907        78.8016 
  57   0.0000       2.943462        80.0957 
  58   0.0000       3.070806        83.5609 
  59   0.0000       3.098488        84.3141 
  60   0.0000       3.099683        84.3467 
  61   0.0000       3.108058        84.5746 
  62   0.0000       3.116336        84.7998 
  63   0.0000       3.142491        85.5115 
  64   0.0000       3.165149        86.1281 
  65   0.0000       3.206085        87.2420 
  66   0.0000       3.235262        88.0360 
  67   0.0000       3.352055        91.2141 
  68   0.0000       3.410711        92.8102 
  69   0.0000       3.412658        92.8632 
  70   0.0000       3.420447        93.0751 
  71   0.0000       3.478121        94.6445 
  72   0.0000       3.498061        95.1871 
  73   0.0000       3.513288        95.6014 
  74   0.0000       3.588235        97.6409 
  75   0.0000       3.614156        98.3462 
  76   0.0000       3.731065       101.5274 
  77   0.0000       3.796277       103.3019 
  78   0.0000       3.923184       106.7553 
  79   0.0000       3.928615       106.9030 
  80   0.0000       3.955176       107.6258 
  81   0.0000       4.013345       109.2087 
  82   0.0000       4.024368       109.5086 
  83   0.0000       4.036158       109.8295 
  84   0.0000       4.126167       112.2787 
  85   0.0000       4.191299       114.0510 
  86   0.0000       4.218932       114.8030 
  87   0.0000       4.228328       115.0587 
  88   0.0000       4.273739       116.2943 
  89   0.0000       4.336361       117.9984 
  90   0.0000       4.361797       118.6905 
  91   0.0000       4.411857       120.0527 
  92   0.0000       4.449623       121.0804 
  93   0.0000       4.560669       124.1021 
  94   0.0000       4.667746       127.0158 
  95   0.0000       4.856502       132.1521 
  96   0.0000       4.856723       132.1582 
  97   0.0000       4.917276       133.8059 
  98   0.0000       4.961212       135.0014 
  99   0.0000       5.014083       136.4401 
 100   0.0000       5.124284       139.4389 
 101   0.0000       5.228532       142.2756 
 102   0.0000       5.234332       142.4334 
 103   0.0000       5.384345       146.5155 
 104   0.0000       5.407756       147.1525 
 105   0.0000       5.434732       147.8866 
 106   0.0000       5.522750       150.2817 
 107   0.0000       5.548650       150.9865 
 108   0.0000       5.649211       153.7228 
 109   0.0000       5.792222       157.6144 
 110   0.0000       6.253571       170.1683 
 111   0.0000       6.347861       172.7341 
 112   0.0000       6.405652       174.3067 
 113   0.0000       6.841800       186.1748 
 114   0.0000      11.843412       322.2756 
 115   0.0000      14.778857       402.1531 
------------------
MOLECULAR ORBITALS (RHF, ROHF)
------------------
                      0         1         2         3         4         5   
                 -11.22896 -11.22724  -1.03315  -0.79212  -0.64361  -0.58622
                   2.00000   2.00000   2.00000   2.00000   2.00000   2.00000
                  --------  --------  --------  --------  --------  --------
  0C   1s         0.706330  0.707056  0.015488 -0.006609  0.000000  0.000064
  0C   2s         0.001053  0.002345 -0.621023  0.496150  0.000000  0.049887
  0C   3s         0.001441  0.001057  0.014486 -0.011074 -0.000000 -0.002134
  0C   4s         0.000398  0.001305  0.116048 -0.009789  0.000000 -0.036234
  0C   1pz       -0.000000 -0.000000  0.000000 -0.000000 -0.000000 -0.000000
  0C   1px        0.000302  0.001540  0.176794  0.249341  0.000000 -0.639630
  0C   1py       -0.000000  0.000000  0.000000  0.000000 -0.489851 -0.000000
  0C   2pz       -0.000000  0.000000 -0.000000 -0.000000  0.000000  0.000000
  0C   2px       -0.000531 -0.004257 -0.038184 -0.021444 -0.000000  0.057175
  0C   2py        0.000000 -0.000000 -0.000000 -0.000000  0.038107  0.000000
  0C   3pz       -0.000000  0.000000 -0.000000  0.000000  0.000000  0.000000
  0C   3px        0.000126 -0.001952 -0.055153 -0.065295 -0.000000  0.120344
  0C   3py        0.000000 -0.000000 -0.000000 -0.000000  0.093612  0.000000
  0C   1dz2      -0.000399 -0.000724  0.012051 -0.007859 -0.000000 -0.001255
  0C   1dxz       0.000000 -0.000000 -0.000000  0.000000 -0.000000  0.000000
  0C   1dyz       0.000000  0.000000 -0.000000  0.000000  0.000000 -0.000000
  0C   1dx2y2    -0.000025  0.000312 -0.007261 -0.005512  0.000000  0.017787
  0C   1dxy       0.000000  0.000000 -0.000000 -0.000000 -0.004806  0.000000
  0C   2dz2      -0.000018  0.000153  0.012968 -0.016534 -0.000000  0.001392
  0C   2dxz       0.000000 -0.000000 -0.000000  0.000000 -0.000000  0.000000
  0C   2dyz       0.000000 -0.000000 -0.000000  0.000000  0.000000 -0.000000
  0C   2dx2y2    -0.000271  0.002005 -0.002778 -0.008462  0.000000  0.015781
  0C   2dxy       0.000000  0.000000 -0.000000 -0.000000 -0.004203  0.000000
  0C   1f0        0.000000 -0.000000 -0.000000  0.000000 -0.000000  0.000000
  0C   1f+1      -0.000099  0.000142 -0.000608 -0.000381 -0.000000  0.004178
  0C   1f-1      -0.000000 -0.000000  0.000000 -0.000000  0.002290  0.000000
  0C   1f+2       0.000000  0.000000  0.000000 -0.000000 -0.000000 -0.000000
  0C   1f-2       0.000000 -0.000000 -0.000000  0.000000 -0.000000  0.000000
  0C   1f+3       0.000365  0.000822 -0.008742  0.004879 -0.000000  0.004124
  0C   1f-3       0.000000  0.000000 -0.000000  0.000000  0.004523  0.000000
  1C   1s         0.706330 -0.707057  0.015488  0.006609 -0.000000  0.000064
  1C   2s         0.001053 -0.002345 -0.621023 -0.496150 -0.000000  0.049887
  1C   3s         0.001441 -0.001057  0.014486  0.011074  0.000000 -0.002134
  1C   4s         0.000398 -0.001305  0.116048  0.009789 -0.000000 -0.036234
  1C   1pz       -0.000000  0.000000 -0.000000 -0.000000  0.000000 -0.000000
  1C   1px       -0.000302  0.001540 -0.176794  0.249341  0.000000  0.639630
  1C   1py        0.000000  0.000000 -0.000000  0.000000 -0.489851  0.000000
  1C   2pz        0.000000 -0.000000 -0.000000  0.000000 -0.000000  0.000000
  1C   2px        0.000531 -0.004257  0.038184 -0.021444 -0.000000 -0.057175
  1C   2py        0.000000 -0.000000  0.000000 -0.000000  0.038107 -0.000000
  1C   3pz        0.000000 -0.000000  0.000000  0.000000 -0.000000  0.000000
  1C   3px       -0.000126 -0.001952  0.055153 -0.065295 -0.000000 -0.120344
  1C   3py       -0.000000 -0.000000  0.000000 -0.000000  0.093612 -0.000000
  1C   1dz2      -0.000399  0.000724  0.012051  0.007859  0.000000 -0.001255
  1C   1dxz      -0.000000 -0.000000 -0.000000  0.000000 -0.000000  0.000000
  1C   1dyz      -0.000000  0.000000  0.000000  0.000000 -0.000000  0.000000
  1C   1dx2y2    -0.000025 -0.000312 -0.007261  0.005512 -0.000000  0.017787
  1C   1dxy      -0.000000 -0.000000 -0.000000  0.000000  0.004806  0.000000
  1C   2dz2      -0.000018 -0.000153  0.012968  0.016534  0.000000  0.001392
  1C   2dxz       0.000000 -0.000000  0.000000  0.000000 -0.000000  0.000000
  1C   2dyz      -0.000000  0.000000  0.000000  0.000000 -0.000000  0.000000
  1C   2dx2y2    -0.000271 -0.002005 -0.002778  0.008462  0.000000  0.015781
  1C   2dxy       0.000000 -0.000000 -0.000000  0.000000  0.004203  0.000000
  1C   1f0       -0.000000  0.000000  0.000000  0.000000  0.000000 -0.000000
  1C   1f+1       0.000099  0.000142  0.000608 -0.000381 -0.000000 -0.004178
  1C   1f-1       0.000000 -0.000000 -0.000000 -0.000000  0.002290 -0.000000
  1C   1f+2      -0.000000 -0.000000 -0.000000 -0.000000  0.000000  0.000000
  1C   1f-2       0.000000 -0.000000 -0.000000 -0.000000 -0.000000  0.000000
  1C   1f+3      -0.000365  0.000822  0.008742  0.004879 -0.000000 -0.004124
  1C   1f-3      -0.000000  0.000000  0.000000  0.000000  0.004523 -0.000000
  2H   1s         0.000272  0.000239 -0.210912  0.369666 -0.394239 -0.317419
  2H   2s        -0.000126  0.001572  0.068623 -0.079444  0.052894  0.041092
  2H   3s        -0.000626 -0.000156  0.078829 -0.118815  0.106990  0.076466
  2H   1pz       -0.000000 -0.000000  0.000000  0.000000 -0.000000 -0.000000
  2H   1px        0.000130  0.000130  0.003071 -0.003272  0.006854  0.000765
  2H   1py        0.000195  0.000208  0.003235 -0.007996  0.006232  0.007889
  2H   2pz        0.000000 -0.000000 -0.000000 -0.000000 -0.000000 -0.000000
  2H   2px        0.000145 -0.000615 -0.002645  0.000659  0.009322 -0.002150
  2H   2py       -0.000075 -0.000383 -0.004954 -0.005634  0.007203  0.011316
  2H   1dz2       0.000049  0.000036 -0.000056 -0.000730  0.001481  0.000766
  2H   1dxz      -0.000000  0.000000 -0.000000  0.000000  0.000000  0.000000
  2H   1dyz      -0.000000  0.000000  0.000000 -0.000000 -0.000000  0.000000
  2H   1dx2y2     0.000041  0.000115 -0.000701 -0.001406 -0.000643  0.002561
  2H   1dxy      -0.000175 -0.000155  0.000303  0.000985 -0.002971 -0.000989
  3H   1s         0.000272 -0.000239 -0.210912 -0.369666  0.394239 -0.317419
  3H   2s        -0.000126 -0.001572  0.068623  0.079444 -0.052894  0.041092
  3H   3s        -0.000626  0.000156  0.078829  0.118815 -0.106990  0.076466
  3H   1pz        0.000000 -0.000000  0.000000  0.000000 -0.000000  0.000000
  3H   1px       -0.000130  0.000130 -0.003071 -0.003272  0.006854 -0.000765
  3H   1py       -0.000195  0.000208 -0.003235 -0.007996  0.006232 -0.007889
  3H   2pz       -0.000000  0.000000 -0.000000  0.000000 -0.000000  0.000000
  3H   2px       -0.000145 -0.000615  0.002645  0.000659  0.009322  0.002150
  3H   2py        0.000075 -0.000383  0.004954 -0.005634  0.007203 -0.011316
  3H   1dz2       0.000049 -0.000036 -0.000056  0.000730 -0.001481  0.000766
  3H   1dxz       0.000000 -0.000000 -0.000000  0.000000 -0.000000  0.000000
  3H   1dyz       0.000000  0.000000  0.000000  0.000000 -0.000000  0.000000
  3H   1dx2y2     0.000041 -0.000115 -0.000701  0.001406  0.000643  0.002561
  3H   1dxy      -0.000175  0.000155  0.000303 -0.000985  0.002971 -0.000989
  4H   1s         0.000272 -0.000239 -0.210912 -0.369666 -0.394239 -0.317419
  4H   2s        -0.000126 -0.001572  0.068623  0.079444  0.052894  0.041092
  4H   3s        -0.000626  0.000156  0.078829  0.118815  0.106990  0.076466
  4H   1pz        0.000000 -0.000000  0.000000  0.000000  0.000000  0.000000
  4H   1px       -0.000130  0.000130 -0.003071 -0.003272 -0.006854 -0.000765
  4H   1py        0.000195 -0.000208  0.003235  0.007996  0.006232  0.007889
  4H   2pz       -0.000000  0.000000 -0.000000  0.000000  0.000000  0.000000
  4H   2px       -0.000145 -0.000615  0.002645  0.000659 -0.009322  0.002150
  4H   2py       -0.000075  0.000383 -0.004954  0.005634  0.007203  0.011316
  4H   1dz2       0.000049 -0.000036 -0.000056  0.000730  0.001481  0.000766
  4H   1dxz       0.000000 -0.000000 -0.000000  0.000000  0.000000  0.000000
  4H   1dyz      -0.000000 -0.000000 -0.000000 -0.000000 -0.000000 -0.000000
  4H   1dx2y2     0.000041 -0.000115 -0.000701  0.001406 -0.000643  0.002561
  4H   1dxy       0.000175 -0.000155 -0.000303  0.000985  0.002971  0.000989
  5H   1s         0.000272  0.000239 -0.210912  0.369666  0.394239 -0.317419
  5H   2s        -0.000126  0.001572  0.068623 -0.079444 -0.052894  0.041092
  5H   3s        -0.000626 -0.000156  0.078829 -0.118815 -0.106990  0.076466
  5H   1pz       -0.000000 -0.000000  0.000000  0.000000  0.000000 -0.000000
  5H   1px        0.000130  0.000130  0.003071 -0.003272 -0.006854  0.000765
  5H   1py       -0.000195 -0.000208 -0.003235  0.007996  0.006232 -0.007889
  5H   2pz        0.000000 -0.000000 -0.000000 -0.000000  0.000000 -0.000000
  5H   2px        0.000145 -0.000615 -0.002645  0.000659 -0.009322 -0.002150
  5H   2py        0.000075  0.000383  0.004954  0.005634  0.007203 -0.011316
  5H   1dz2       0.000049  0.000036 -0.000056 -0.000730 -0.001481  0.000766
  5H   1dxz      -0.000000  0.000000 -0.000000  0.000000 -0.000000  0.000000
  5H   1dyz       0.000000 -0.000000 -0.000000  0.000000 -0.000000 -0.000000
  5H   1dx2y2     0.000041  0.000115 -0.000701 -0.001406  0.000643  0.002561
  5H   1dxy       0.000175  0.000155 -0.000303 -0.000985 -0.002971  0.000989
                      6         7         8         9        10        11   
                  -0.50726  -0.37641   0.15221   0.15922   0.18751   0.19083
                   2.00000   2.00000   0.00000   0.00000   0.00000   0.00000
                  --------  --------  --------  --------  --------  --------
  0C   1s         0.000000 -0.000000 -0.000000  0.010689  0.019061 -0.000000
  0C   2s         0.000000 -0.000000 -0.000000  0.254803  0.330965 -0.000000
  0C   3s        -0.000000  0.000000  0.000000 -0.007354 -0.020469  0.000000
  0C   4s         0.000000  0.000000 -0.000000  1.910521  3.336142 -0.000003
  0C   1pz       -0.000000 -0.571098 -0.522038 -0.000000  0.000000  0.000000
  0C   1px        0.000000  0.000000 -0.000000  0.173086  0.105644 -0.000000
  0C   1py       -0.464644  0.000000  0.000000  0.000000 -0.000000 -0.289884
  0C   2pz       -0.000000  0.009305  0.049618  0.000000 -0.000000 -0.000000
  0C   2px       -0.000000 -0.000000 -0.000000  0.124857  0.039930 -0.000000
  0C   2py        0.023371 -0.000000 -0.000000  0.000000 -0.000000 -0.094063
  0C   3pz        0.000000 -0.023654 -0.655354 -0.000000  0.000000 -0.000000
  0C   3px       -0.000000 -0.000000 -0.000000  0.579404 -0.139466  0.000000
  0C   3py        0.032896 -0.000000 -0.000000  0.000000 -0.000001 -0.885592
  0C   1dz2       0.000000  0.000000 -0.000000 -0.001249  0.003696 -0.000000
  0C   1dxz       0.000000  0.014162 -0.016866 -0.000000  0.000000  0.000000
  0C   1dyz       0.000000  0.000000 -0.000000  0.000000 -0.000000  0.000000
  0C   1dx2y2     0.000000 -0.000000  0.000000  0.000080 -0.003814  0.000000
  0C   1dxy      -0.020579  0.000000 -0.000000  0.000000  0.000000  0.008753
  0C   2dz2       0.000000  0.000000  0.000000 -0.094245 -0.166956  0.000000
  0C   2dxz       0.000000  0.027506  0.004756  0.000000  0.000000  0.000000
  0C   2dyz      -0.000000  0.000000 -0.000000  0.000000  0.000000  0.000000
  0C   2dx2y2     0.000000  0.000000  0.000000 -0.033237 -0.056370  0.000000
  0C   2dxy      -0.035989  0.000000 -0.000000 -0.000000 -0.000000 -0.061703
  0C   1f0        0.000000  0.005465  0.002707  0.000000  0.000000  0.000000
  0C   1f+1      -0.000000 -0.000000  0.000000 -0.006192  0.001571 -0.000000
  0C   1f-1       0.002503  0.000000  0.000000 -0.000000  0.000000  0.005771
  0C   1f+2      -0.000000 -0.004703 -0.000958 -0.000000  0.000000 -0.000000
  0C   1f-2       0.000000 -0.000000 -0.000000  0.000000  0.000000 -0.000000
  0C   1f+3       0.000000 -0.000000 -0.000000  0.015320  0.010141 -0.000000
  0C   1f-3      -0.002319  0.000000 -0.000000  0.000000  0.000000 -0.000076
  1C   1s         0.000000  0.000000 -0.000000  0.010689 -0.019061  0.000000
  1C   2s         0.000000  0.000000 -0.000000  0.254803 -0.330965  0.000000
  1C   3s        -0.000000 -0.000000  0.000000 -0.007353  0.020469 -0.000000
  1C   4s         0.000000  0.000000 -0.000000  1.910521 -3.336142  0.000003
  1C   1pz       -0.000000 -0.571098  0.522038  0.000000 -0.000000 -0.000000
  1C   1px       -0.000000 -0.000000  0.000000 -0.173086  0.105644 -0.000000
  1C   1py        0.464644 -0.000000  0.000000 -0.000000 -0.000000 -0.289884
  1C   2pz       -0.000000  0.009305 -0.049618  0.000000 -0.000000  0.000000
  1C   2px        0.000000 -0.000000  0.000000 -0.124857  0.039930 -0.000000
  1C   2py       -0.023371  0.000000 -0.000000 -0.000000 -0.000000 -0.094063
  1C   3pz        0.000000 -0.023654  0.655354  0.000000 -0.000000  0.000000
  1C   3px        0.000000 -0.000000  0.000000 -0.579404 -0.139466  0.000000
  1C   3py       -0.032896  0.000000 -0.000000 -0.000000 -0.000001 -0.885592
  1C   1dz2       0.000000 -0.000000 -0.000000 -0.001249 -0.003696  0.000000
  1C   1dxz      -0.000000 -0.014162 -0.016866 -0.000000  0.000000  0.000000
  1C   1dyz       0.000000 -0.000000 -0.000000 -0.000000 -0.000000  0.000000
  1C   1dx2y2     0.000000  0.000000  0.000000  0.000080  0.003814 -0.000000
  1C   1dxy      -0.020579  0.000000  0.000000 -0.000000 -0.000000 -0.008753
  1C   2dz2       0.000000 -0.000000  0.000000 -0.094245  0.166956 -0.000000
  1C   2dxz      -0.000000 -0.027506  0.004756 -0.000000  0.000000 -0.000000
  1C   2dyz       0.000000 -0.000000 -0.000000 -0.000000  0.000000 -0.000000
  1C   2dx2y2     0.000000 -0.000000  0.000000 -0.033237  0.056370 -0.000000
  1C   2dxy      -0.035989 -0.000000  0.000000 -0.000000  0.000000  0.061703
  1C   1f0        0.000000  0.005465 -0.002707 -0.000000  0.000000 -0.000000
  1C   1f+1       0.000000 -0.000000 -0.000000  0.006192  0.001571 -0.000000
  1C   1f-1      -0.002503 -0.000000  0.000000  0.000000  0.000000  0.005771
  1C   1f+2      -0.000000 -0.004703  0.000958 -0.000000  0.000000 -0.000000
  1C   1f-2      -0.000000 -0.000000  0.000000  0.000000 -0.000000 -0.000000
  1C   1f+3      -0.000000 -0.000000  0.000000 -0.015320  0.010141 -0.000000
  1C   1f-3       0.002319 -0.000000 -0.000000 -0.000000  0.000000 -0.000076
  2H   1s        -0.475353  0.000000  0.000000 -0.002197 -0.012437  0.053295
  2H   2s         0.074198  0.000000  0.000000 -0.181430 -0.245285  0.047908
  2H   3s         0.101490 -0.000000  0.000000 -1.185908 -1.357083  1.543226
  2H   1pz       -0.000000 -0.005101 -0.009420 -0.000000  0.000000  0.000000
  2H   1px        0.005348  0.000000 -0.000000 -0.001339 -0.008173  0.013002
  2H   1py        0.006819 -0.000000  0.000000 -0.013022 -0.013270  0.010046
  2H   2pz        0.000000 -0.013411 -0.016913 -0.000000 -0.000000  0.000000
  2H   2px        0.004611 -0.000000 -0.000000  0.064922  0.097595 -0.078188
  2H   2py        0.001968 -0.000000 -0.000000  0.135600  0.145365 -0.085172
  2H   1dz2       0.000792 -0.000000 -0.000000  0.006664  0.005942 -0.002621
  2H   1dxz       0.000000  0.001613  0.000836  0.000000 -0.000000  0.000000
  2H   1dyz       0.000000  0.001639  0.004120  0.000000 -0.000000 -0.000000
  2H   1dx2y2     0.000808 -0.000000 -0.000000  0.003844  0.001032 -0.001856
  2H   1dxy      -0.001560  0.000000  0.000000 -0.006299 -0.005098  0.004092
  3H   1s        -0.475353 -0.000000  0.000000 -0.002197  0.012437 -0.053295
  3H   2s         0.074198  0.000000  0.000000 -0.181430  0.245285 -0.047908
  3H   3s         0.101490  0.000000  0.000000 -1.185908  1.357083 -1.543226
  3H   1pz        0.000000 -0.005101  0.009420  0.000000  0.000000 -0.000000
  3H   1px       -0.005348 -0.000000  0.000000  0.001339 -0.008173  0.013002
  3H   1py       -0.006819 -0.000000 -0.000000  0.013022 -0.013270  0.010046
  3H   2pz        0.000000 -0.013411  0.016913  0.000000 -0.000000  0.000000
  3H   2px       -0.004611 -0.000000  0.000000 -0.064922  0.097595 -0.078188
  3H   2py       -0.001968 -0.000000  0.000000 -0.135600  0.145365 -0.085172
  3H   1dz2       0.000792  0.000000 -0.000000  0.006664 -0.005942  0.002621
  3H   1dxz       0.000000 -0.001613  0.000836  0.000000 -0.000000 -0.000000
  3H   1dyz       0.000000 -0.001639  0.004120  0.000000 -0.000000  0.000000
  3H   1dx2y2     0.000808 -0.000000 -0.000000  0.003844 -0.001032  0.001856
  3H   1dxy      -0.001560 -0.000000  0.000000 -0.006299  0.005098 -0.004092
  4H   1s         0.475353 -0.000000  0.000000 -0.002197  0.012437  0.053295
  4H   2s        -0.074198  0.000000  0.000000 -0.181430  0.245286  0.047908
  4H   3s        -0.101490  0.000000  0.000000 -1.185907  1.357086  1.543224
  4H   1pz       -0.000000 -0.005101  0.009420  0.000000  0.000000  0.000000
  4H   1px        0.005348 -0.000000  0.000000  0.001339 -0.008173 -0.013002
  4H   1py       -0.006819  0.000000  0.000000 -0.013022  0.013270  0.010045
  4H   2pz       -0.000000 -0.013411  0.016913  0.000000 -0.000000 -0.000000
  4H   2px        0.004611 -0.000000  0.000000 -0.064922  0.097595  0.078188
  4H   2py       -0.001968  0.000000 -0.000000  0.135600 -0.145365 -0.085172
  4H   1dz2      -0.000792  0.000000 -0.000000  0.006664 -0.005942 -0.002621
  4H   1dxz      -0.000000 -0.001613  0.000836  0.000000 -0.000000  0.000000
  4H   1dyz       0.000000  0.001639 -0.004120 -0.000000  0.000000  0.000000
  4H   1dx2y2    -0.000808 -0.000000 -0.000000  0.003844 -0.001032 -0.001856
  4H   1dxy      -0.001560  0.000000 -0.000000  0.006299 -0.005098 -0.004092
  5H   1s         0.475353  0.000000  0.000000 -0.002197 -0.012437 -0.053295
  5H   2s        -0.074198  0.000000  0.000000 -0.181430 -0.245286 -0.047908
  5H   3s        -0.101490 -0.000000  0.000000 -1.185908 -1.357086 -1.543224
  5H   1pz        0.000000 -0.005101 -0.009420 -0.000000  0.000000 -0.000000
  5H   1px       -0.005348  0.000000 -0.000000 -0.001339 -0.008173 -0.013002
  5H   1py        0.006819  0.000000 -0.000000  0.013022  0.013270  0.010045
  5H   2pz       -0.000000 -0.013411 -0.016913 -0.000000 -0.000000 -0.000000
  5H   2px       -0.004611 -0.000000 -0.000000  0.064922  0.097595  0.078188
  5H   2py        0.001968  0.000000  0.000000 -0.135600 -0.145365 -0.085172
  5H   1dz2      -0.000792 -0.000000 -0.000000  0.006664  0.005942  0.002621
  5H   1dxz      -0.000000  0.001613  0.000836  0.000000 -0.000000 -0.000000
  5H   1dyz       0.000000 -0.001639 -0.004120 -0.000000  0.000000 -0.000000
  5H   1dx2y2    -0.000808 -0.000000 -0.000000  0.003844  0.001032  0.001856
  5H   1dxy      -0.001560 -0.000000 -0.000000  0.006299  0.005098  0.004092
                     12        13        14        15        16        17   
                   0.24113   0.36759   0.37339   0.44203   0.44670   0.48640
                   0.00000   0.00000   0.00000   0.00000   0.00000   0.00000
                  --------  --------  --------  --------  --------  --------
  0C   1s        -0.000000 -0.012203 -0.056672 -0.000000  0.000000  0.027898
  0C   2s        -0.000000 -0.110215 -0.249588  0.000000  0.000000  0.203105
  0C   3s        -0.000000  0.024635 -0.016014 -0.000000  0.000000  0.033870
  0C   4s        -0.000000 -6.057816 -0.758801 -0.000000  0.000000 -2.139326
  0C   1pz        0.000000 -0.000000  0.000000  0.000000 -0.384424 -0.000000
  0C   1px        0.000000  0.066720  0.192415 -0.000000  0.000000 -0.188326
  0C   1py       -0.246140  0.000000  0.000000  0.026684  0.000000  0.000000
  0C   2pz       -0.000000 -0.000000  0.000000  0.000000 -0.351289 -0.000000
  0C   2px        0.000000  0.607820  0.258766 -0.000000 -0.000000 -0.507208
  0C   2py       -0.185225  0.000000  0.000000 -0.424651  0.000000 -0.000000
  0C   3pz       -0.000000  0.000000  0.000000 -0.000000  0.856437  0.000000
  0C   3px        0.000000  5.044514 -1.460480  0.000000 -0.000000  0.034932
  0C   3py       -2.662484  0.000001 -0.000000 -1.189135 -0.000000 -0.000000
  0C   1dz2      -0.000000 -0.002612  0.006739  0.000000 -0.000000  0.004280
  0C   1dxz      -0.000000  0.000000 -0.000000 -0.000000  0.003889  0.000000
  0C   1dyz      -0.000000 -0.000000  0.000000 -0.000000 -0.000000 -0.000000
  0C   1dx2y2     0.000000  0.010655 -0.045628 -0.000000 -0.000000  0.033425
  0C   1dxy      -0.020875  0.000000 -0.000000  0.026025  0.000000 -0.000000
  0C   2dz2       0.000000  0.132302 -0.079247  0.000000  0.000000  0.066142
  0C   2dxz      -0.000000 -0.000000  0.000000 -0.000000  0.110612  0.000000
  0C   2dyz       0.000000 -0.000000 -0.000000  0.000000  0.000000 -0.000000
  0C   2dx2y2     0.000000 -0.369670  0.178718  0.000000  0.000000  0.061549
  0C   2dxy      -0.053357 -0.000000  0.000000 -0.284283  0.000000  0.000000
  0C   1f0        0.000000 -0.000000  0.000000  0.000000 -0.006986 -0.000000
  0C   1f+1      -0.000000 -0.028721  0.020654 -0.000000  0.000000  0.013645
  0C   1f-1       0.015704 -0.000000  0.000000  0.031300  0.000000  0.000000
  0C   1f+2       0.000000  0.000000 -0.000000  0.000000  0.000880  0.000000
  0C   1f-2       0.000000  0.000000 -0.000000  0.000000  0.000000 -0.000000
  0C   1f+3       0.000000 -0.015595  0.009952 -0.000000 -0.000000 -0.065151
  0C   1f-3      -0.003377 -0.000000  0.000000  0.012282  0.000000 -0.000000
  1C   1s        -0.000000  0.012202 -0.056672  0.000000  0.000000  0.027898
  1C   2s        -0.000000  0.110215 -0.249588 -0.000000  0.000000  0.203105
  1C   3s        -0.000000 -0.024635 -0.016014  0.000000 -0.000000  0.033870
  1C   4s        -0.000000  6.057815 -0.758804  0.000000 -0.000000 -2.139326
  1C   1pz        0.000000 -0.000000 -0.000000  0.000000 -0.384424  0.000000
  1C   1px       -0.000000  0.066720 -0.192415 -0.000000  0.000000  0.188326
  1C   1py        0.246140  0.000000 -0.000000  0.026684 -0.000000  0.000000
  1C   2pz       -0.000000 -0.000000 -0.000000  0.000000 -0.351289 -0.000000
  1C   2px       -0.000000  0.607820 -0.258766 -0.000000 -0.000000  0.507209
  1C   2py        0.185225  0.000000 -0.000000 -0.424651 -0.000000  0.000000
  1C   3pz       -0.000000  0.000000 -0.000000  0.000000  0.856437 -0.000000
  1C   3px       -0.000000  5.044515  1.460478  0.000000 -0.000000 -0.034932
  1C   3py        2.662485  0.000001  0.000000 -1.189135 -0.000000  0.000000
  1C   1dz2      -0.000000  0.002612  0.006739 -0.000000  0.000000  0.004280
  1C   1dxz       0.000000 -0.000000 -0.000000 -0.000000 -0.003889  0.000000
  1C   1dyz      -0.000000 -0.000000 -0.000000  0.000000  0.000000  0.000000
  1C   1dx2y2     0.000000 -0.010655 -0.045628  0.000000  0.000000  0.033425
  1C   1dxy      -0.020875 -0.000000 -0.000000 -0.026025 -0.000000 -0.000000
  1C   2dz2       0.000000 -0.132302 -0.079246 -0.000000 -0.000000  0.066142
  1C   2dxz       0.000000  0.000000  0.000000 -0.000000 -0.110612  0.000000
  1C   2dyz       0.000000 -0.000000  0.000000 -0.000000 -0.000000  0.000000
  1C   2dx2y2     0.000000  0.369670  0.178718 -0.000000 -0.000000  0.061549
  1C   2dxy      -0.053357  0.000000  0.000000  0.284283  0.000000  0.000000
  1C   1f0        0.000000 -0.000000 -0.000000 -0.000000 -0.006986  0.000000
  1C   1f+1       0.000000 -0.028721 -0.020654 -0.000000  0.000000 -0.013645
  1C   1f-1      -0.015704 -0.000000 -0.000000  0.031300  0.000000 -0.000000
  1C   1f+2       0.000000  0.000000  0.000000 -0.000000  0.000880  0.000000
  1C   1f-2      -0.000000 -0.000000 -0.000000  0.000000  0.000000 -0.000000
  1C   1f+3      -0.000000 -0.015595 -0.009952 -0.000000 -0.000000  0.065151
  1C   1f-3       0.003377 -0.000000 -0.000000  0.012282  0.000000  0.000000
  2H   1s        -0.109742 -0.111598  0.077008  0.248062  0.000000  0.100846
  2H   2s         0.304718 -0.244963  0.330713  0.988038  0.000000  0.992357
  2H   3s         2.521022 -1.271385  0.108862  0.241711  0.000000  0.289035
  2H   1pz       -0.000000  0.000000 -0.000000 -0.000000  0.006417  0.000000
  2H   1px        0.012574  0.017364 -0.009628 -0.011902 -0.000000 -0.004425
  2H   1py        0.009480 -0.006152 -0.000457 -0.019224 -0.000000 -0.018733
  2H   2pz       -0.000000 -0.000000 -0.000000 -0.000000 -0.048769  0.000000
  2H   2px       -0.131583  0.024807 -0.031706 -0.010410 -0.000000 -0.169467
  2H   2py       -0.122817  0.082156  0.065704 -0.190705 -0.000000 -0.232377
  2H   1dz2      -0.005377  0.003622  0.006720 -0.004622 -0.000000 -0.023977
  2H   1dxz       0.000000  0.000000 -0.000000  0.000000 -0.000528  0.000000
  2H   1dyz       0.000000 -0.000000  0.000000  0.000000  0.001677 -0.000000
  2H   1dx2y2    -0.001014  0.002813  0.010771 -0.012873 -0.000000 -0.015637
  2H   1dxy       0.011692 -0.010216  0.000952  0.012978  0.000000  0.026413
  3H   1s        -0.109742  0.111598  0.077008 -0.248062 -0.000000  0.100846
  3H   2s         0.304718  0.244964  0.330713 -0.988038 -0.000000  0.992357
  3H   3s         2.521022  1.271385  0.108861 -0.241711 -0.000000  0.289035
  3H   1pz        0.000000  0.000000  0.000000  0.000000  0.006417 -0.000000
  3H   1px       -0.012574  0.017364  0.009628 -0.011902 -0.000000  0.004425
  3H   1py       -0.009480 -0.006152  0.000457 -0.019224 -0.000000  0.018733
  3H   2pz       -0.000000 -0.000000  0.000000  0.000000 -0.048769 -0.000000
  3H   2px        0.131583  0.024807  0.031706 -0.010410 -0.000000  0.169467
  3H   2py        0.122817  0.082156 -0.065704 -0.190705 -0.000000  0.232377
  3H   1dz2      -0.005377 -0.003622  0.006720  0.004622  0.000000 -0.023977
  3H   1dxz       0.000000 -0.000000 -0.000000 -0.000000  0.000528 -0.000000
  3H   1dyz       0.000000 -0.000000  0.000000  0.000000 -0.001677 -0.000000
  3H   1dx2y2    -0.001014 -0.002813  0.010771  0.012873  0.000000 -0.015637
  3H   1dxy       0.011692  0.010216  0.000952 -0.012978 -0.000000  0.026413
  4H   1s         0.109742  0.111598  0.077008  0.248062 -0.000000  0.100846
  4H   2s        -0.304718  0.244964  0.330713  0.988038 -0.000000  0.992357
  4H   3s        -2.521022  1.271385  0.108861  0.241710 -0.000000  0.289035
  4H   1pz       -0.000000  0.000000  0.000000 -0.000000  0.006417 -0.000000
  4H   1px        0.012574  0.017364  0.009628  0.011902 -0.000000  0.004425
  4H   1py       -0.009480  0.006152 -0.000457 -0.019224  0.000000 -0.018733
  4H   2pz        0.000000 -0.000000  0.000000 -0.000000 -0.048769 -0.000000
  4H   2px       -0.131583  0.024807  0.031706  0.010410 -0.000000  0.169467
  4H   2py        0.122817 -0.082156  0.065704 -0.190705  0.000000 -0.232377
  4H   1dz2       0.005377 -0.003622  0.006720 -0.004622  0.000000 -0.023977
  4H   1dxz      -0.000000 -0.000000 -0.000000  0.000000  0.000528 -0.000000
  4H   1dyz       0.000000  0.000000 -0.000000  0.000000  0.001677  0.000000
  4H   1dx2y2     0.001014 -0.002813  0.010771 -0.012873  0.000000 -0.015637
  4H   1dxy       0.011692 -0.010216 -0.000952 -0.012978  0.000000 -0.026413
  5H   1s         0.109742 -0.111598  0.077008 -0.248062  0.000000  0.100846
  5H   2s        -0.304718 -0.244963  0.330713 -0.988038  0.000000  0.992357
  5H   3s        -2.521022 -1.271385  0.108862 -0.241710  0.000000  0.289035
  5H   1pz        0.000000  0.000000 -0.000000 -0.000000  0.006417  0.000000
  5H   1px       -0.012574  0.017364 -0.009628  0.011902 -0.000000 -0.004425
  5H   1py        0.009480  0.006152  0.000457 -0.019224  0.000000  0.018733
  5H   2pz        0.000000 -0.000000 -0.000000  0.000000 -0.048769  0.000000
  5H   2px        0.131583  0.024807 -0.031706  0.010410 -0.000000 -0.169467
  5H   2py       -0.122817 -0.082156 -0.065704 -0.190705  0.000000  0.232377
  5H   1dz2       0.005377  0.003622  0.006720  0.004622 -0.000000 -0.023977
  5H   1dxz      -0.000000  0.000000 -0.000000 -0.000000 -0.000528  0.000000
  5H   1dyz       0.000000  0.000000 -0.000000  0.000000 -0.001677  0.000000
  5H   1dx2y2     0.001014  0.002813  0.010771  0.012873 -0.000000 -0.015637
  5H   1dxy       0.011692  0.010216 -0.000952  0.012978 -0.000000 -0.026413
                     18        19        20        21        22        23   
                   0.56558   0.58975   0.59550   0.63642   0.63916   0.67854
                   0.00000   0.00000   0.00000   0.00000   0.00000   0.00000
                  --------  --------  --------  --------  --------  --------
  0C   1s        -0.000000  0.004657 -0.000000 -0.022540 -0.027443  0.000000
  0C   2s         0.000000  0.220133 -0.000000  0.336080  0.370417 -0.000000
  0C   3s        -0.000000 -0.112338  0.000000  0.031433  0.102917 -0.000000
  0C   4s         0.000000  8.478196 -0.000017 -3.889783 -8.483200  0.000000
  0C   1pz       -0.573789  0.000000 -0.000000 -0.000000  0.000000 -0.000000
  0C   1px       -0.000000 -0.203620  0.000000  0.355570  0.283215 -0.000000
  0C   1py        0.000000 -0.000001 -0.554266 -0.000000  0.000000 -0.000000
  0C   2pz       -0.301042  0.000000  0.000000 -0.000000  0.000000 -0.000000
  0C   2px        0.000000  0.599861 -0.000001 -0.530356 -0.779031  0.000000
  0C   2py       -0.000000  0.000002  0.820243 -0.000000 -0.000000  0.000000
  0C   3pz        1.744478 -0.000000  0.000000  0.000000  0.000000  0.000000
  0C   3px       -0.000000 -2.269796  0.000004 -1.256754  0.180288 -0.000000
  0C   3py       -0.000000  0.000004  2.395212  0.000000 -0.000000  0.000000
  0C   1dz2       0.000000  0.015473 -0.000000  0.023805  0.009298  0.000000
  0C   1dxz       0.007872 -0.000000  0.000000  0.000000  0.000000  0.000000
  0C   1dyz      -0.000000  0.000000  0.000000 -0.000000 -0.000000 -0.002929
  0C   1dx2y2    -0.000000 -0.007829  0.000000  0.030296  0.013918 -0.000000
  0C   1dxy      -0.000000  0.000000  0.036245  0.000000 -0.000000  0.000000
  0C   2dz2      -0.000000 -0.457275  0.000001  0.400388  0.782560 -0.000000
  0C   2dxz      -0.265568  0.000000  0.000000 -0.000000  0.000000 -0.000000
  0C   2dyz      -0.000000 -0.000000 -0.000000 -0.000000 -0.000000  0.389694
  0C   2dx2y2    -0.000000 -0.522725  0.000001  0.289849  0.659398 -0.000000
  0C   2dxy      -0.000000  0.000001  0.734883  0.000000  0.000000  0.000000
  0C   1f0       -0.020461  0.000000 -0.000000 -0.000000 -0.000000 -0.000000
  0C   1f+1      -0.000000 -0.019095  0.000000  0.028310  0.024001 -0.000000
  0C   1f-1       0.000000 -0.000000 -0.049413  0.000000  0.000000 -0.000000
  0C   1f+2       0.023681 -0.000000 -0.000000  0.000000 -0.000000  0.000000
  0C   1f-2       0.000000  0.000000 -0.000000 -0.000000 -0.000000 -0.002554
  0C   1f+3       0.000000  0.079031 -0.000000 -0.070421 -0.076677  0.000000
  0C   1f-3       0.000000  0.000000  0.008961 -0.000000 -0.000000 -0.000000
  1C   1s        -0.000000 -0.004657  0.000000 -0.022540  0.027443 -0.000000
  1C   2s        -0.000000 -0.220133  0.000000  0.336080 -0.370417  0.000000
  1C   3s         0.000000  0.112338 -0.000000  0.031433 -0.102917  0.000000
  1C   4s        -0.000000 -8.478196  0.000016 -3.889781  8.483201 -0.000000
  1C   1pz        0.573789 -0.000000  0.000000  0.000000 -0.000000  0.000000
  1C   1px       -0.000000 -0.203620  0.000000 -0.355570  0.283215 -0.000000
  1C   1py        0.000000 -0.000001 -0.554266  0.000000  0.000000  0.000000
  1C   2pz        0.301042 -0.000000 -0.000000 -0.000000  0.000000  0.000000
  1C   2px        0.000000  0.599861 -0.000001  0.530356 -0.779031  0.000000
  1C   2py       -0.000000  0.000002  0.820243  0.000000 -0.000000 -0.000000
  1C   3pz       -1.744478  0.000000 -0.000000 -0.000000  0.000000 -0.000000
  1C   3px       -0.000000 -2.269796  0.000004  1.256754  0.180288 -0.000000
  1C   3py       -0.000000  0.000004  2.395212 -0.000000 -0.000001 -0.000000
  1C   1dz2      -0.000000 -0.015473  0.000000  0.023805 -0.009298 -0.000000
  1C   1dxz       0.007872  0.000000  0.000000  0.000000 -0.000000  0.000000
  1C   1dyz       0.000000  0.000000  0.000000  0.000000 -0.000000 -0.002929
  1C   1dx2y2    -0.000000  0.007829 -0.000000  0.030296 -0.013918  0.000000
  1C   1dxy       0.000000 -0.000000 -0.036245  0.000000  0.000000  0.000000
  1C   2dz2       0.000000  0.457275 -0.000001  0.400387 -0.782561  0.000000
  1C   2dxz      -0.265568  0.000000  0.000000  0.000000 -0.000000 -0.000000
  1C   2dyz      -0.000000 -0.000000  0.000000  0.000000 -0.000000  0.389694
  1C   2dx2y2     0.000000  0.522725 -0.000001  0.289849 -0.659398  0.000000
  1C   2dxy       0.000000 -0.000001 -0.734883  0.000000 -0.000000  0.000000
  1C   1f0        0.020461  0.000000  0.000000  0.000000 -0.000000  0.000000
  1C   1f+1      -0.000000 -0.019095  0.000000 -0.028310  0.024001 -0.000000
  1C   1f-1       0.000000 -0.000000 -0.049413  0.000000  0.000000  0.000000
  1C   1f+2      -0.023681  0.000000  0.000000  0.000000 -0.000000 -0.000000
  1C   1f-2      -0.000000 -0.000000 -0.000000 -0.000000  0.000000  0.002554
  1C   1f+3       0.000000  0.079031 -0.000000  0.070421 -0.076677  0.000000
  1C   1f-3       0.000000  0.000000  0.008961  0.000000 -0.000000  0.000000
  2H   1s        -0.000000 -0.140864  0.244999 -0.279657 -0.319311  0.000000
  2H   2s        -0.000000 -1.910704 -1.074716  0.933520  1.760535 -0.000000
  2H   3s        -0.000000  0.155719 -1.950291  1.448427  1.708635 -0.000000
  2H   1pz        0.009109 -0.000000  0.000000  0.000000 -0.000000 -0.024578
  2H   1px        0.000000  0.013932 -0.002985 -0.005623 -0.005535 -0.000000
  2H   1py        0.000000  0.032786  0.006872  0.001972 -0.005423  0.000000
  2H   2pz       -0.072439  0.000000  0.000000 -0.000000  0.000000  0.238418
  2H   2px        0.000000  0.334791  0.386910 -0.268102 -0.555305  0.000000
  2H   2py        0.000000  0.284960  0.528415 -0.635106 -0.748472  0.000000
  2H   1dz2       0.000000  0.023207  0.017538 -0.028588 -0.033510  0.000000
  2H   1dxz       0.002729 -0.000000 -0.000000 -0.000000  0.000000  0.002867
  2H   1dyz      -0.005474  0.000000 -0.000000 -0.000000 -0.000000  0.010058
  2H   1dx2y2     0.000000  0.003328  0.011693 -0.021661 -0.010435  0.000000
  2H   1dxy      -0.000000 -0.028511 -0.033581  0.031166  0.038912 -0.000000
  3H   1s         0.000000  0.140864 -0.244999 -0.279657  0.319311  0.000000
  3H   2s         0.000000  1.910704  1.074716  0.933520 -1.760535 -0.000000
  3H   3s        -0.000000 -0.155719  1.950291  1.448427 -1.708635 -0.000000
  3H   1pz       -0.009109  0.000000 -0.000000 -0.000000 -0.000000  0.024578
  3H   1px        0.000000  0.013932 -0.002985  0.005623 -0.005535  0.000000
  3H   1py        0.000000  0.032786  0.006872 -0.001972 -0.005423 -0.000000
  3H   2pz        0.072439 -0.000000 -0.000000 -0.000000  0.000000 -0.238418
  3H   2px        0.000000  0.334791  0.386910  0.268102 -0.555305 -0.000000
  3H   2py       -0.000000  0.284960  0.528415  0.635105 -0.748472 -0.000000
  3H   1dz2      -0.000000 -0.023207 -0.017538 -0.028588  0.033510  0.000000
  3H   1dxz       0.002729 -0.000000 -0.000000 -0.000000  0.000000  0.002867
  3H   1dyz      -0.005474 -0.000000 -0.000000 -0.000000  0.000000  0.010058
  3H   1dx2y2     0.000000 -0.003328 -0.011693 -0.021661  0.010435  0.000000
  3H   1dxy       0.000000  0.028511  0.033581  0.031166 -0.038912 -0.000000
  4H   1s         0.000000  0.140865  0.244998 -0.279657  0.319311 -0.000000
  4H   2s         0.000000  1.910700 -1.074723  0.933520 -1.760534  0.000000
  4H   3s        -0.000000 -0.155726 -1.950291  1.448427 -1.708634  0.000000
  4H   1pz       -0.009109  0.000000  0.000000 -0.000000 -0.000000 -0.024578
  4H   1px        0.000000  0.013932  0.002985  0.005623 -0.005535 -0.000000
  4H   1py       -0.000000 -0.032786  0.006872  0.001972  0.005423 -0.000000
  4H   2pz        0.072439 -0.000000  0.000000 -0.000000  0.000000  0.238418
  4H   2px        0.000000  0.334790 -0.386911  0.268102 -0.555305  0.000000
  4H   2py        0.000000 -0.284958  0.528416 -0.635105  0.748472 -0.000000
  4H   1dz2      -0.000000 -0.023207  0.017538 -0.028588  0.033510 -0.000000
  4H   1dxz       0.002729 -0.000000  0.000000 -0.000000  0.000000 -0.002867
  4H   1dyz       0.005474  0.000000 -0.000000  0.000000 -0.000000  0.010058
  4H   1dx2y2     0.000000 -0.003328  0.011693 -0.021661  0.010435 -0.000000
  4H   1dxy      -0.000000 -0.028511  0.033581 -0.031166  0.038912 -0.000000
  5H   1s        -0.000000 -0.140865 -0.244998 -0.279657 -0.319311 -0.000000
  5H   2s        -0.000000 -1.910700  1.074723  0.933520  1.760534  0.000000
  5H   3s        -0.000000  0.155726  1.950291  1.448427  1.708634  0.000000
  5H   1pz        0.009109 -0.000000 -0.000000  0.000000 -0.000000  0.024578
  5H   1px        0.000000  0.013932  0.002985 -0.005623 -0.005535  0.000000
  5H   1py       -0.000000 -0.032786  0.006872 -0.001972  0.005423  0.000000
  5H   2pz       -0.072439  0.000000 -0.000000 -0.000000  0.000000 -0.238418
  5H   2px        0.000000  0.334790 -0.386911 -0.268102 -0.555305 -0.000000
  5H   2py       -0.000000 -0.284958  0.528416  0.635105  0.748472  0.000000
  5H   1dz2       0.000000  0.023207 -0.017538 -0.028588 -0.033510 -0.000000
  5H   1dxz       0.002729 -0.000000  0.000000 -0.000000  0.000000 -0.002867
  5H   1dyz       0.005474 -0.000000 -0.000000  0.000000  0.000000  0.010058
  5H   1dx2y2     0.000000  0.003328 -0.011693 -0.021661 -0.010435 -0.000000
  5H   1dxy       0.000000  0.028511 -0.033581 -0.031166 -0.038912 -0.000000
                     24        25        26        27        28        29   
                   0.69454   0.79273   0.82985   0.85466   0.87717   0.98871
                   0.00000   0.00000   0.00000   0.00000   0.00000   0.00000
                  --------  --------  --------  --------  --------  --------
  0C   1s         0.000000  0.012454 -0.000000  0.000000 -0.000000 -0.021086
  0C   2s         0.000000 -0.288792 -0.000000  0.000000  0.000000 -0.023523
  0C   3s         0.000000 -0.078548 -0.000000  0.000000 -0.000000 -0.067007
  0C   4s         0.000000  9.055262  0.000000 -0.000000 -0.000000  1.424255
  0C   1pz       -0.000000  0.000000  0.000000 -0.000000 -0.062605 -0.000000
  0C   1px        0.000000  0.707008  0.000000 -0.000000 -0.000000  0.187319
  0C   1py       -0.612895  0.000000  0.000000  0.342596 -0.000000  0.000000
  0C   2pz        0.000000 -0.000000  0.000000 -0.000000 -0.092763  0.000000
  0C   2px       -0.000000 -0.786453  0.000000  0.000000  0.000000  0.068836
  0C   2py        0.565131 -0.000000  0.000000  0.275067 -0.000000  0.000000
  0C   3pz        0.000000 -0.000000 -0.000000  0.000000  0.288803 -0.000000
  0C   3px       -0.000001 -5.152396  0.000000 -0.000001  0.000000  0.931846
  0C   3py        6.143187 -0.000001  0.000000  3.661601 -0.000000  0.000000
  0C   1dz2      -0.000000 -0.010963  0.000000 -0.000000  0.000000  0.015878
  0C   1dxz      -0.000000  0.000000  0.000000 -0.000000 -0.007137 -0.000000
  0C   1dyz       0.000000 -0.000000 -0.006912  0.000000 -0.000000  0.000000
  0C   1dx2y2    -0.000000  0.052943 -0.000000  0.000000 -0.000000 -0.008778
  0C   1dxy       0.027491  0.000000 -0.000000 -0.026902  0.000000 -0.000000
  0C   2dz2      -0.000000 -0.499713 -0.000000  0.000000 -0.000000 -0.561611
  0C   2dxz       0.000000  0.000000  0.000000 -0.000000 -0.389356  0.000000
  0C   2dyz      -0.000000  0.000000 -0.123930  0.000000 -0.000000  0.000000
  0C   2dx2y2    -0.000000  0.649643 -0.000000 -0.000000 -0.000000 -0.272664
  0C   2dxy       0.561385  0.000000  0.000000  0.951739 -0.000000  0.000000
  0C   1f0       -0.000000  0.000000 -0.000000 -0.000000 -0.002955  0.000000
  0C   1f+1       0.000000  0.045579  0.000000  0.000000 -0.000000 -0.018130
  0C   1f-1      -0.056258  0.000000 -0.000000 -0.029431  0.000000 -0.000000
  0C   1f+2      -0.000000 -0.000000 -0.000000 -0.000000 -0.016931  0.000000
  0C   1f-2       0.000000  0.000000  0.030879 -0.000000  0.000000 -0.000000
  0C   1f+3       0.000000  0.054809  0.000000  0.000000 -0.000000  0.034169
  0C   1f-3      -0.003276  0.000000 -0.000000 -0.010018  0.000000  0.000000
  1C   1s         0.000000 -0.012454 -0.000000  0.000000  0.000000 -0.021086
  1C   2s         0.000000  0.288792 -0.000000  0.000000 -0.000000 -0.023523
  1C   3s         0.000000  0.078548 -0.000000  0.000000 -0.000000 -0.067007
  1C   4s         0.000000 -9.055262  0.000000 -0.000000  0.000000  1.424255
  1C   1pz       -0.000000 -0.000000  0.000000 -0.000000 -0.062605  0.000000
  1C   1px       -0.000000  0.707008 -0.000000  0.000000 -0.000000 -0.187319
  1C   1py        0.612895  0.000000 -0.000000 -0.342596  0.000000 -0.000000
  1C   2pz        0.000000 -0.000000  0.000000 -0.000000 -0.092763  0.000000
  1C   2px        0.000000 -0.786453 -0.000000  0.000000  0.000000 -0.068836
  1C   2py       -0.565131 -0.000000 -0.000000 -0.275067  0.000000 -0.000000
  1C   3pz        0.000000 -0.000000 -0.000000  0.000000  0.288803  0.000000
  1C   3px        0.000001 -5.152396 -0.000000  0.000001  0.000000 -0.931846
  1C   3py       -6.143187 -0.000001 -0.000000 -3.661602  0.000000 -0.000000
  1C   1dz2       0.000000  0.010963  0.000000 -0.000000 -0.000000  0.015878
  1C   1dxz       0.000000 -0.000000 -0.000000  0.000000  0.007137 -0.000000
  1C   1dyz       0.000000 -0.000000  0.006912 -0.000000  0.000000 -0.000000
  1C   1dx2y2    -0.000000 -0.052943 -0.000000  0.000000  0.000000 -0.008778
  1C   1dxy       0.027491 -0.000000 -0.000000 -0.026902  0.000000 -0.000000
  1C   2dz2      -0.000000  0.499713 -0.000000  0.000000 -0.000000 -0.561611
  1C   2dxz      -0.000000 -0.000000 -0.000000  0.000000  0.389356 -0.000000
  1C   2dyz      -0.000000  0.000000  0.123930 -0.000000  0.000000 -0.000000
  1C   2dx2y2    -0.000000 -0.649643 -0.000000 -0.000000  0.000000 -0.272664
  1C   2dxy       0.561385 -0.000000  0.000000  0.951739 -0.000000  0.000000
  1C   1f0       -0.000000  0.000000 -0.000000 -0.000000 -0.002955 -0.000000
  1C   1f+1      -0.000000  0.045579 -0.000000 -0.000000 -0.000000  0.018130
  1C   1f-1       0.056258  0.000000  0.000000  0.029431 -0.000000  0.000000
  1C   1f+2      -0.000000 -0.000000 -0.000000 -0.000000 -0.016931  0.000000
  1C   1f-2       0.000000  0.000000  0.030879 -0.000000  0.000000 -0.000000
  1C   1f+3      -0.000000  0.054809 -0.000000 -0.000000 -0.000000 -0.034169
  1C   1f-3       0.003276  0.000000  0.000000  0.010018 -0.000000 -0.000000
  2H   1s         0.175941 -0.037169 -0.000000 -0.177042 -0.000000 -0.085762
  2H   2s        -1.529739 -0.352922 -0.000000 -1.883483 -0.000000 -0.834472
  2H   3s        -2.910798  0.791747 -0.000000 -0.808140 -0.000000 -0.159283
  2H   1pz        0.000000  0.000000  0.035562 -0.000000  0.027093 -0.000000
  2H   1px       -0.002192 -0.008659  0.000000  0.022127  0.000000  0.041741
  2H   1py        0.010730  0.009578  0.000000  0.018344  0.000000  0.016882
  2H   2pz       -0.000000 -0.000000 -0.493973  0.000000 -0.345620  0.000000
  2H   2px        0.379703  0.209336 -0.000000 -0.224176  0.000000 -0.348408
  2H   2py        0.485094 -0.108418  0.000000  0.284054 -0.000000  0.021386
  2H   1dz2       0.014477  0.000049 -0.000000 -0.002283 -0.000000 -0.001953
  2H   1dxz      -0.000000 -0.000000  0.005114 -0.000000 -0.005279  0.000000
  2H   1dyz      -0.000000  0.000000  0.008819 -0.000000  0.001815  0.000000
  2H   1dx2y2     0.011660 -0.008777  0.000000  0.024690 -0.000000  0.001716
  2H   1dxy      -0.030989  0.001361  0.000000  0.000602 -0.000000 -0.002597
  3H   1s         0.175941  0.037169 -0.000000 -0.177042 -0.000000 -0.085762
[...]
  0C   2dx2y2    -0.205175 -1.437986 -0.000000 -0.000001  1.412582  0.000000
  0C   2dxy      -0.000000 -0.000000  0.585875 -0.766429 -0.000000 -0.526265
  0C   1f0        0.000000  0.000000 -0.000000  0.000000  0.000000  0.000000
  0C   1f+1       0.175936 -0.157464  0.000000 -0.000001  0.721901 -0.000000
  0C   1f-1      -0.000000 -0.000000 -0.629558  0.187674  0.000000  0.008197
  0C   1f+2       0.000000  0.000000 -0.000000 -0.000000  0.000000  0.000000
  0C   1f-2       0.000000  0.000000  0.000000  0.000000 -0.000000  0.000000
  0C   1f+3       0.697381 -0.346722  0.000000  0.000000 -1.056424  0.000001
  0C   1f-3       0.000000  0.000000 -0.803507  0.827605  0.000000 -2.072332
  1C   1s        -0.536331 -0.188141  0.000000  0.000000 -0.255634  0.000000
  1C   2s        -2.120707 -0.966079  0.000000  0.000001 -0.578971  0.000000
  1C   3s        -0.387307 -0.325780  0.000000  0.000000  0.084582 -0.000000
  1C   4s        -0.423193 -0.562294 -0.000000  0.000001 -0.892838  0.000000
  1C   1pz       -0.000000 -0.000000  0.000000  0.000000  0.000000 -0.000000
  1C   1px       -0.674067  0.373420 -0.000000 -0.000001  1.732149 -0.000000
  1C   1py        0.000000  0.000000  0.237115 -0.127327  0.000000  0.324158
  1C   2pz        0.000000 -0.000000  0.000000  0.000000 -0.000000 -0.000000
  1C   2px        1.672226  3.772362  0.000001  0.000005 -5.768215 -0.000000
  1C   2py        0.000000  0.000002 -5.648187 -1.935153 -0.000002  0.152049
  1C   3pz       -0.000000 -0.000000  0.000000  0.000000 -0.000000 -0.000000
  1C   3px        0.606714  0.499653  0.000000  0.000001 -1.350582 -0.000000
  1C   3py        0.000000  0.000000 -2.223640 -0.277053 -0.000000  0.535337
  1C   1dz2      -0.049859  0.097049  0.000000  0.000000 -0.202618  0.000000
  1C   1dxz      -0.000000  0.000000 -0.000000 -0.000000 -0.000000 -0.000000
  1C   1dyz      -0.000000  0.000000 -0.000000 -0.000000 -0.000000  0.000000
  1C   1dx2y2    -0.384563  1.053235 -0.000000  0.000000 -0.405991  0.000000
  1C   1dxy      -0.000000 -0.000000  0.919488  1.083779  0.000001 -0.677450
  1C   2dz2       0.155939  0.168093 -0.000000  0.000000 -0.110804 -0.000000
  1C   2dxz       0.000000  0.000000 -0.000000 -0.000000 -0.000000 -0.000000
  1C   2dyz      -0.000000  0.000000 -0.000000 -0.000000 -0.000000  0.000000
  1C   2dx2y2    -0.205175  1.437986 -0.000000  0.000001 -1.412582  0.000000
  1C   2dxy      -0.000000  0.000000  0.585875  0.766429  0.000000 -0.526265
  1C   1f0       -0.000000  0.000000 -0.000000 -0.000000  0.000000  0.000000
  1C   1f+1      -0.175936 -0.157464 -0.000000 -0.000001  0.721901 -0.000000
  1C   1f-1       0.000000 -0.000000  0.629558  0.187674  0.000000 -0.008197
  1C   1f+2      -0.000000  0.000000 -0.000000  0.000000 -0.000000  0.000000
  1C   1f-2       0.000000 -0.000000  0.000000  0.000000  0.000000 -0.000000
  1C   1f+3      -0.697381 -0.346722 -0.000000  0.000000 -1.056424 -0.000001
  1C   1f-3      -0.000000  0.000000  0.803507  0.827605  0.000000  2.072332
  2H   1s        -2.456982  0.919900 -0.709090  0.773333  3.446237 -0.289218
  2H   2s         2.759380 -3.177532 -3.783363  1.465105 -0.153482  1.072450
  2H   3s         1.240744 -0.650501 -0.354997 -0.224227 -1.356578  0.346802
  2H   1pz        0.000000  0.000000 -0.000000 -0.000000  0.000000 -0.000000
  2H   1px        0.243967  0.153879  0.199833  0.045014 -0.330306 -0.630097
  2H   1py        0.228733  0.210279  0.806534 -0.625689 -0.685414  0.209671
  2H   2pz        0.000000 -0.000000 -0.000000 -0.000000  0.000000 -0.000000
  2H   2px       -0.207611  0.924986  1.114402 -0.267089 -0.186487 -0.467869
  2H   2py       -1.093690  1.094342  1.493724 -0.815600 -0.428819 -0.202147
  2H   1dz2      -0.334459  0.335884  0.369421 -0.175652  0.049077 -0.115306
  2H   1dxz      -0.000000  0.000000 -0.000000  0.000000 -0.000000 -0.000000
  2H   1dyz      -0.000000 -0.000000  0.000000  0.000000 -0.000000  0.000000
  2H   1dx2y2    -0.460249  0.032502  0.383215 -0.605032 -0.252773  0.534479
  2H   1dxy      -0.002065 -0.574170 -0.409676  0.132245  0.074615  0.502666
  3H   1s        -2.456982 -0.919900 -0.709091 -0.773333 -3.446237 -0.289218
  3H   2s         2.759379  3.177532 -3.783363 -1.465104  0.153482  1.072450
  3H   3s         1.240743  0.650501 -0.354997  0.224227  1.356578  0.346802
  3H   1pz       -0.000000  0.000000  0.000000 -0.000000  0.000000 -0.000000
  3H   1px       -0.243967  0.153879 -0.199833  0.045014 -0.330306  0.630097
  3H   1py       -0.228733  0.210279 -0.806534 -0.625688 -0.685414 -0.209671
  3H   2pz       -0.000000 -0.000000  0.000000  0.000000  0.000000 -0.000000
  3H   2px        0.207611  0.924986 -1.114402 -0.267088 -0.186487  0.467869
  3H   2py        1.093690  1.094342 -1.493725 -0.815599 -0.428819  0.202147
  3H   1dz2      -0.334459 -0.335884  0.369421  0.175652 -0.049077 -0.115306
  3H   1dxz      -0.000000 -0.000000  0.000000 -0.000000  0.000000 -0.000000
  3H   1dyz      -0.000000 -0.000000  0.000000  0.000000  0.000000  0.000000
  3H   1dx2y2    -0.460249 -0.032502  0.383215  0.605032  0.252773  0.534479
  3H   1dxy      -0.002065  0.574170 -0.409676 -0.132245 -0.074615  0.502666
  4H   1s        -2.456981 -0.919900  0.709090  0.773338 -3.446235  0.289219
  4H   2s         2.759378  3.177529  3.783364  1.465104  0.153483 -1.072451
  4H   3s         1.240743  0.650501  0.354998 -0.224229  1.356577 -0.346803
  4H   1pz       -0.000000  0.000000 -0.000000  0.000000  0.000000  0.000000
  4H   1px       -0.243967  0.153878  0.199833 -0.045013 -0.330307 -0.630097
  4H   1py        0.228733 -0.210279 -0.806534 -0.625689  0.685413 -0.209671
  4H   2pz       -0.000000 -0.000000 -0.000000 -0.000000  0.000000  0.000000
  4H   2px        0.207611  0.924985  1.114403  0.267089 -0.186487 -0.467869
  4H   2py       -1.093690 -1.094341 -1.493724 -0.815600  0.428818  0.202147
  4H   1dz2      -0.334459 -0.335884 -0.369421 -0.175652 -0.049078  0.115306
  4H   1dxz      -0.000000 -0.000000 -0.000000  0.000000  0.000000  0.000000
  4H   1dyz       0.000000  0.000000  0.000000  0.000000 -0.000000  0.000000
  4H   1dx2y2    -0.460248 -0.032501 -0.383215 -0.605032  0.252772 -0.534480
  4H   1dxy       0.002065 -0.574170 -0.409677 -0.132246  0.074615  0.502666
  5H   1s        -2.456981  0.919900  0.709090 -0.773338  3.446235  0.289219
  5H   2s         2.759378 -3.177529  3.783363 -1.465105 -0.153483 -1.072451
  5H   3s         1.240743 -0.650501  0.354998  0.224229 -1.356577 -0.346803
  5H   1pz        0.000000  0.000000  0.000000  0.000000  0.000000  0.000000
  5H   1px        0.243967  0.153878 -0.199833 -0.045013 -0.330307  0.630097
  5H   1py       -0.228733 -0.210279  0.806534 -0.625690  0.685412  0.209671
  5H   2pz        0.000000 -0.000000  0.000000  0.000000  0.000000  0.000000
  5H   2px       -0.207611  0.924985 -1.114403  0.267089 -0.186487  0.467869
  5H   2py        1.093690 -1.094341  1.493724 -0.815600  0.428818 -0.202147
  5H   1dz2      -0.334459  0.335884 -0.369421  0.175652  0.049077  0.115306
  5H   1dxz      -0.000000  0.000000  0.000000 -0.000000 -0.000000  0.000000
  5H   1dyz       0.000000  0.000000  0.000000  0.000000  0.000000  0.000000
  5H   1dx2y2    -0.460248  0.032501 -0.383215  0.605032 -0.252772 -0.534480
  5H   1dxy       0.002065  0.574170 -0.409677  0.132246 -0.074615  0.502666
                    114       115   
                  11.84341  14.77886
                   0.00000   0.00000
                  --------  --------
  0C   1s         4.469693 -5.266853
  0C   2s        13.627235-16.227694
  0C   3s        -3.639621  4.454848
  0C   4s        -2.381918 -1.241385
  0C   1pz        0.000000 -0.000000
  0C   1px       -0.442322 -0.468734
  0C   1py       -0.000000 -0.000000
  0C   2pz       -0.000000  0.000000
  0C   2px        3.754105  2.519687
  0C   2py        0.000001 -0.000000
  0C   3pz       -0.000000  0.000000
  0C   3px        0.920166  1.850382
  0C   3py        0.000000  0.000000
  0C   1dz2      -0.483943  0.680259
  0C   1dxz      -0.000000 -0.000000
  0C   1dyz       0.000000 -0.000000
  0C   1dx2y2    -0.408051 -0.270959
  0C   1dxy      -0.000000 -0.000000
  0C   2dz2      -1.281726  1.873257
  0C   2dxz      -0.000000 -0.000000
  0C   2dyz       0.000000 -0.000000
  0C   2dx2y2    -1.297366 -1.010249
  0C   2dxy       0.000000 -0.000000
  0C   1f0        0.000000 -0.000000
  0C   1f+1      -0.278792 -0.141520
  0C   1f-1      -0.000000  0.000000
  0C   1f+2       0.000000  0.000000
  0C   1f-2       0.000000 -0.000000
  0C   1f+3       0.605855 -1.023243
  0C   1f-3       0.000000 -0.000000
  1C   1s         4.469693  5.266853
  1C   2s        13.627235 16.227695
  1C   3s        -3.639621 -4.454848
  1C   4s        -2.381918  1.241384
  1C   1pz       -0.000000 -0.000000
  1C   1px        0.442322 -0.468734
  1C   1py        0.000000 -0.000000
  1C   2pz        0.000000  0.000000
  1C   2px       -3.754105  2.519687
  1C   2py       -0.000001  0.000000
  1C   3pz        0.000000  0.000000
  1C   3px       -0.920166  1.850382
  1C   3py       -0.000000  0.000000
  1C   1dz2      -0.483943 -0.680259
  1C   1dxz      -0.000000  0.000000
  1C   1dyz      -0.000000 -0.000000
  1C   1dx2y2    -0.408051  0.270959
  1C   1dxy      -0.000000  0.000000
  1C   2dz2      -1.281726 -1.873257
  1C   2dxz      -0.000000  0.000000
  1C   2dyz      -0.000000 -0.000000
  1C   2dx2y2    -1.297367  1.010249
  1C   2dxy       0.000000  0.000000
  1C   1f0       -0.000000 -0.000000
  1C   1f+1       0.278792 -0.141520
  1C   1f-1       0.000000 -0.000000
  1C   1f+2      -0.000000  0.000000
  1C   1f-2       0.000000  0.000000
  1C   1f+3      -0.605855 -1.023243
  1C   1f-3      -0.000000 -0.000000
  2H   1s        -0.268555  0.491551
  2H   2s        -5.003471  3.007765
  2H   3s        -0.398183  0.112199
  2H   1pz       -0.000000  0.000000
  2H   1px        0.236249 -0.243152
  2H   1py        0.428218 -0.345138
  2H   2pz        0.000000  0.000000
  2H   2px        1.487156 -0.692870
  2H   2py        2.109957 -1.401327
  2H   1dz2       0.320530 -0.211532
  2H   1dxz      -0.000000 -0.000000
  2H   1dyz      -0.000000 -0.000000
  2H   1dx2y2     0.208787 -0.166533
  2H   1dxy      -0.465063  0.339533
  3H   1s        -0.268555 -0.491551
  3H   2s        -5.003471 -3.007765
  3H   3s        -0.398184 -0.112199
  3H   1pz        0.000000  0.000000
  3H   1px       -0.236248 -0.243152
  3H   1py       -0.428218 -0.345138
  3H   2pz        0.000000  0.000000
  3H   2px       -1.487156 -0.692870
  3H   2py       -2.109957 -1.401327
  3H   1dz2       0.320530  0.211532
  3H   1dxz       0.000000  0.000000
  3H   1dyz       0.000000  0.000000
  3H   1dx2y2     0.208787  0.166533
  3H   1dxy      -0.465063 -0.339533
  4H   1s        -0.268555 -0.491551
  4H   2s        -5.003470 -3.007764
  4H   3s        -0.398184 -0.112199
  4H   1pz        0.000000  0.000000
  4H   1px       -0.236249 -0.243152
  4H   1py        0.428218  0.345138
  4H   2pz        0.000000  0.000000
  4H   2px       -1.487157 -0.692870
  4H   2py        2.109956  1.401327
  4H   1dz2       0.320530  0.211532
  4H   1dxz       0.000000  0.000000
  4H   1dyz      -0.000000 -0.000000
  4H   1dx2y2     0.208787  0.166533
  4H   1dxy       0.465063  0.339533
  5H   1s        -0.268555  0.491551
  5H   2s        -5.003470  3.007764
  5H   3s        -0.398184  0.112199
  5H   1pz       -0.000000  0.000000
  5H   1px        0.236249 -0.243152
  5H   1py       -0.428218  0.345138
  5H   2pz        0.000000  0.000000
  5H   2px        1.487157 -0.692870
  5H   2py       -2.109956  1.401327
  5H   1dz2       0.320530 -0.211532
  5H   1dxz      -0.000000 -0.000000
  5H   1dyz       0.000000  0.000000
  5H   1dx2y2     0.208787 -0.166533
  5H   1dxy       0.465063 -0.339533


-------
TIMINGS
-------

Total SCF time: 0 days 0 hours 0 min 1 sec 

Total time                  ....       1.279 sec
Sum of individual times     ....       1.282 sec  (100.2%)

SCF preparation             ....       0.106 sec  (  8.3%)
Fock matrix formation       ....       0.945 sec  ( 73.9%)
  Startup                   ....       0.014 sec  (  1.5% of F)
  Coulomb+Exchange Fock     ....       0.916 sec  ( 96.9% of F)
Diagonalization             ....       0.000 sec  (  0.0%)
Density matrix formation    ....       0.025 sec  (  1.9%)
Total Energy calculation    ....       0.062 sec  (  4.8%)
Population analysis         ....       0.000 sec  (  0.0%)
Orbital Transformation      ....       0.020 sec  (  1.5%)
Orbital Orthonormalization  ....       0.000 sec  (  0.0%)
DIIS solution               ....       0.096 sec  (  7.5%)
SOSCF solution              ....       0.028 sec  (  2.2%)
Finished LeanSCF after   1.3 sec

Maximum memory used throughout the entire LEANSCF-calculation: 12.3 MB

-------------------------   --------------------
FINAL SINGLE POINT ENERGY       -78.063896772742
-------------------------   --------------------



           ************************************************************
           *        Program running with 8 parallel MPI-processes     *
           *              working on a common directory               *
           ************************************************************

------------------------------------------------------------------------------
                              ORCA PROPERTY CALCULATIONS
------------------------------------------------------------------------------

GBWName                                 ... orca.gbw
Number of atoms                         ...      6
Number of basis functions               ...    132
Max core memory                         ...   1024 MB

Electric properties:
Dipole moment                           ... YES
Quadrupole moment                       ...  NO
Static polarizability (Dipole/Dipole)   ...  NO
Static polarizability (Dipole/Quad.)    ...  NO
Static polarizability (Quad./Quad.)     ...  NO
Static polarizability (Velocity)        ...  NO

Atomic electric properties:
Dipole moment                           ...  NO
Quadrupole moment                       ...  NO
Static polarizability                   ...  NO

Choice of electric origin               ... Center of mass
Position of electric origin             ...    -0.000000     0.000000    -0.000000

General magnetic properties:
Magnetizability                         ...  NO

EPR properties:
g-Tensor (aka g-matrix)                 ...  NO
Zero-Field splitting spin-orbit         ...  NO
Zero-field splitting spin-spin          ...  NO
Hyperfine couplings                     ...  NO (   0 nuclei)
Quadrupole couplings                    ...  NO (   0 nuclei)
Contact density                         ...  NO (   0 nuclei)

NMR properties:
Chemical shifts                         ...  NO (   0 nuclei)
Spin-rotation constants                 ...  NO (   0 nuclei)
Spin-spin couplings                     ...  NO (   0 nuclei,    0 pairs)

Choice of magnetic origin               ... GIAO
Position of magnetic origin             ...     0.000000     0.000000     0.000000

Properties with geometric perturbations:
SCF Hessian                             ...  NO
IR spectrum                             ...  NO
VCD spectrum                            ...  NO
X-ray spectroscopy properties:
SCF XES/XAS/RIXS spectra                ...  NO


-------------
DIPOLE MOMENT
-------------

Method             : SCF
Type of density    : Electron Density
Multiplicity       :   1
Irrep              :   0
Energy             :   -78.0638967727417281 Eh
Relativity type    : 
Basis              : AO
                                X                 Y                 Z
Electronic contribution:     -0.000000016       0.000000011      -0.000000000
Nuclear contribution   :      0.000000018      -0.000000007       0.000000000
                        -----------------------------------------
Total Dipole Moment    :      0.000000002       0.000000003       0.000000000
                        -----------------------------------------
Magnitude (a.u.)       :      0.000000004
Magnitude (Debye)      :      0.000000010



--------------------
Rotational spectrum 
--------------------
 
Rotational constants in cm-1:             4.909538             1.007321             0.835829 
Rotational constants in MHz :        147184.243121         30198.723516         25057.514530 

Dipole components along the rotational axes: 
x,y,z [a.u.] :     0.000000    -0.000000     0.000000 
x,y,z [Debye]:     0.000000    -0.000000     0.000000 

 

Dipole moment calculation done in   0.0 sec 

Maximum memory used throughout the entire PROP-calculation: 4.1 MB

--------------------------------
SUGGESTED CITATIONS FOR THIS RUN
--------------------------------

Below you find a list of papers that are relevant to this ORCA run
We neither can nor want to force you to cite these papers, but we appreciate if you do
You receive ORCA, which is the product of decades of hard work by many enthusiastic individuals, for free
The only thing we kindly ask in return is that you cite our papers,
We deeply appreciate it, if you show your appreciation for ORCA by not just citing the generic ORCA reference.

Please note that relegating all ORCA citations to the supporting information does *not* help us.
SI sections are not indexed - citations you put there will not count into any citation statistics
But we need these citations in order to attract the funding resources that allow us to do what we are doing

Therefore, if you are a happy ORCA user, please consider citing a few of the papers listed below in the main body of your paper

In addition to the list printed below, the program has created the file orca.bibtex that contains the list in bibtex format
You can import this file easily into all common literature databanks and citation aid programs


List of essential papers. We consider these as the minimum necessary citations

  1. Neese,F.
     Software update: the ORCA program system, version 5.0
     WIRES Comput. Molec. Sci., 2022 12(1)e1606
     doi.org/10.1002/wcms.1606

List of papers to cite with high priority. The work reported in these papers was absolutely
necessary for this run to complete.
Our perspective: the developers of density functionals and basis sets usually get cited in chemistry papers
Good! But without the algorithms to do something with them, the functionals or basis sets would not do anything.
Hence, in our opinion, the algorithm design and method developments papers are equally worthy of getting cited

  1. Neese,F.
     The SHARK Integral Generation and Digestion System
     J. Comp. Chem., 2022  1-16
     doi.org/10.1002/jcc.26942

List of suggested additional citations. These are papers that are important in the 'surrounding' of 
of this run, or papers that preceded the highly important papers. If you like your results we are grateful for a citation.

  1. Neese,F.
     The ORCA program system
     WIRES Comput. Molec. Sci., 2012 2(1)73-78
     doi.org/10.1002/wcms.81
  2. Neese,F.
     Software update: the ORCA program system, version 4.0
     WIRES Comput. Molec. Sci., 2018 8(1)1-6
     doi.org/10.1002/wcms.1327
  3. Neese,F.; Wennmohs,F.; Becker,U.; Riplinger,C.
     The ORCA quantum chemistry program package
     J. Chem. Phys., 2020 152 Art. No. L224108
     doi.org/10.1063/5.0004608

List of optional additional citations

  1. Neese,F.
     Approximate second-order SCF convergence for spin unrestricted wavefunctions
     Chem. Phys. Lett., 2000 325(1-3)93-98
     doi.org/10.1016/s0009-2614(00)00662-x

Timings for individual modules:

Sum of individual times          ...        5.434 sec (=   0.091 min)
Startup calculation              ...        3.113 sec (=   0.052 min)  57.3 %
SCF iterations                   ...        1.978 sec (=   0.033 min)  36.4 %
Property calculations            ...        0.344 sec (=   0.006 min)   6.3 %
                             ****ORCA TERMINATED NORMALLY****
TOTAL RUN TIME: 0 days 0 hours 0 minutes 5 seconds 858 msec
