
                                 *****************
                                 * O   R   C   A *
                                 *****************

                                            #,                                       
                                            ###                                      
                                            ####                                     
                                            #####                                    
                                            ######                                   
                                           ########,                                 
                                     ,,################,,,,,                         
                               ,,#################################,,                 
                          ,,##########################################,,             
                       ,#########################################, ''#####,          
                    ,#############################################,,   '####,        
                  ,##################################################,,,,####,       
                ,###########''''           ''''###############################       
              ,#####''   ,,,,##########,,,,          '''####'''          '####       
            ,##' ,,,,###########################,,,                        '##       
           ' ,,###''''                  '''############,,,                           
         ,,##''                                '''############,,,,        ,,,,,,###''
      ,#''                                            '''#######################'''  
     '                                                          ''''####''''         
             ,#######,   #######,   ,#######,      ##                                
            ,#'     '#,  ##    ##  ,#'     '#,    #''#        ,####,   ,####,        
            ##       ##  ##   ,#'  ##            #'  '#       #'       #'  '#        
            ##       ##  #######   ##           ,######,      #####,   #    #        
            '#,     ,#'  ##    ##  '#,     ,#' ,#      #,     #,   #   #,  ,#        
             '#######'   ##     ##  '#######'  #'      '#     '####' # '####'        



                #########################################################
                #                        -***-                          #
                #          Department of theory and spectroscopy        #
                #                                                       #
                #                      Frank Neese                      #
                #                                                       #
                #     Directorship, Architecture, Infrastructure        #
                #                    SHARK, DRIVERS                     #
                #        Core code/Algorithms in most modules           #
                #                                                       #
                #        Max Planck Institute fuer Kohlenforschung      #
                #                Kaiser Wilhelm Platz 1                 #
                #                 D-45470 Muelheim/Ruhr                 #
                #                      Germany                          #
                #                                                       #
                #                  All rights reserved                  #
                #                        -***-                          #
                #########################################################


                         Program Version 6.0.1  -  RELEASE   -


 With contributions from (in alphabetic order):
[Max-Planck-Institut fuer Kohlenforschung]                               
  Daniel Aravena         : Magnetic Suceptibility                        
  Michael Atanasov       : Ab Initio Ligand Field Theory (pilot matlab implementation)
  Alexander A. Auer      : GIAO ZORA, VPT2 properties, NMR spectrum      
  Ute Becker             : All parallelization in ORCA, NUMFREQ, NUMCALC 
  Giovanni Bistoni       : ED, misc. LED, open-shell LED, HFLD           
  Martin Brehm           : Molecular dynamics                            
  Dmytro Bykov           : pre 5.0 version of the SCF Hessian            
  Marcos Casanova-Páez   : Triplet and SCS-CIS(D). UHF-(DLPNO)-IP/EA/STEOM-CCSD. UHF-CVS-IP/STEOM-CCSD   
  Vijay G. Chilkuri      : MRCI spin determinant printing, contributions to CSF-ICE 
  Pauline Colinet        : FMM embedding                                 
  Dipayan Datta          : RHF DLPNO-CCSD density                        
  Achintya Kumar Dutta   : EOM-CC, STEOM-CC                              
  Nicolas Foglia         : Exact transition moments, OPA infrastructure, MCD improvements    
  Dmitry Ganyushin       : Spin-Orbit,Spin-Spin,Magnetic field MRCI      
  Miquel Garcia-Rates    : C-PCM and meta-GGA Hessian, CCSD/C-PCM, Gaussian charge scheme 
  Tiago L. C. Gouveia    : GS-ROHF, GS-ROCIS                             
  Yang Guo               : DLPNO-NEVPT2, F12-NEVPT2, CIM, IAO-localization        
  Andreas Hansen         : Spin unrestricted coupled pair/coupled cluster methods 
  Ingolf Harden          : AUTO-CI MPn and infrastructure                
  Benjamin Helmich-Paris : MC-RPA, TRAH-(SCF,CASSCF), AVAS, COSX integrals, SCF dyn. polar. 
  Lee Huntington         : MR-EOM, pCC                                   
  Robert Izsak           : Overlap fitted RIJCOSX, COSX-SCS-MP3, EOM     
  Riya Kayal             : Wick's Theorem for AUTO-CI, AUTO-CI UHF-CCSDT 
  Emily Kempfer          : AUTO-CI, RHF CISDT and CCSDT                  
  Christian Kollmar      : KDIIS, OOCD, Brueckner-CCSD(T), CCSD density, CASPT2, CASPT2-K, improved NEVPT2 
  Axel Koslowski         : Symmetry handling                             
  Simone Kossmann        : meta-GGA functionals, TD-DFT gradient, OOMP2, (MP2 Hessian; deprecated post 5.0) 
  Lucas Lang             : DCDCAS                                        
  Marvin Lechner         : AUTO-CI (C++ implementation), FIC-MRCC        
  Spencer Leger          : CASSCF response                               
  Dagmar Lenk            : GEPOL surface, SMD, ORCA-2-JSON               
  Dimitrios Liakos       : Extrapolation schemes; Compound Job, initial MDCI parallelization 
  Dimitrios Manganas     : Further ROCIS development; embedding schemes. LFT, Crystal Embedding 
  Dimitrios Pantazis     : SARC Basis sets                               
  Anastasios Papadopoulos: AUTO-CI, single reference methods and gradients 
  Taras Petrenko         : pre 6.0 DFT Hessian and TD-DFT gradient, (ASA, deprecated), ECA, 1-Electron XAS/XES, NRVS 
  Peter Pinski           : DLPNO-MP2, DLPNO-MP2 Gradient                 
  Christoph Reimann      : Effective Core Potentials                     
  Marius Retegan         : Local ZFS, SOC                                
  Christoph Riplinger    : Optimizer, TS searches, QM/MM, DLPNO-CCSD(T), (RO)-DLPNO pert. Triples 
  Michael Roemelt        : Original ROCIS implementation                 
  Masaaki Saitow         : Open-shell DLPNO-CCSD energy and density      
  Barbara Sandhoefer     : DKH picture change effects                    
  Kantharuban Sivalingam : CASSCF convergence/infrastructure, NEVPT2 and variants, FIC-MRCI 
  Bernardo de Souza      : ESD, SOC TD-DFT                               
  Georgi L. Stoychev     : AutoAux, RI-MP2 NMR, DLPNO-MP2 response, X2C  
  Van Anh Tran           : RI-MP2 g-tensors                              
  Willem Van den Heuvel  : Paramagnetic NMR                              
  Zikuan Wang            : NOTCH, Electric field optimization            
  Frank Wennmohs         : Technical directorship and infrastructure     
  Hang Xu                : AUTO-CI-Response properties                   
                                                                         
[FACCTs GmbH]                                                            
  Markus Bursch, Miquel Garcia-Rates, Christoph Riplinger, Bernardo de Souza, Georgi L. Stoychev 
                                                                 
  APM, Basis sets (HGBS, AHGBS, def-TZVP (Ac-Lr), def2-XVPD (La-Lu)), CI-OPT, improved COSX, DLPNO-Multilevel,           
  DOCKER, DRACO, updates on ESD, GOAT, IRC, LR-CPCM, MBIS, meta-GGA TD-DFT gradient, ML-optimized integration grids, 
  MM, NACMEs, nearIR, NEB, NEB-TS, NL-DFT gradient (VV10), 2- and 3-layer-ONIOM, interface openCOSMO-RS, QMMM,   
  Crystal-QMMM, SF, symmetry and pop. for TD-DFT, r2SCAN hybrids, SOLVATOR                                   
                                                                         
[Other institutions]                                                     
  V. Asgeirsson          : NEB                                           
  Christoph Bannwarth    : sTDA-DFT, sTD-DFT, PBEh-3c, B97-3c, D3        
  Sebastian Ehlert       : rSCAN, r2SCAN, r2SCAN-3c, D4, dhf basis sets  
  Marvin Friede          : D4 for Fr, Ra, Ac-Lr                          
  Lars Goerigk           : TD-DFT with DH, B97 family of functionals     
  Stefan Grimme          : VdW corrections, initial TS optimization, DFT functionals, gCP, sTDA/sTD-DF 
  Waldemar Hujo          : DFT-NL                                        
  H. Jonsson             : NEB                                           
  Holger Kruse           : gCP                                           
  Marcel Mueller         : wB97X-3c, vDZP basis set                      
  Hagen Neugebauer       : wr2SCAN                                       
  Tobias Risthaus        : range-separated hybrid DFT                    
  Lukas Wittmann         : regularized MP2, r2SCAN double-hybrids, wr2SCAN        
                                                                         
We gratefully acknowledge several colleagues who have allowed us to      
interface, adapt or use parts of their codes:                            
  Ed Valeev, F. Pavosevic, A. Kumar             : LibInt (2-el integral package), F12 methods 
  Garnet Chan, S. Sharma, J. Yang, R. Olivares  : DMRG                   
  Ulf Ekstrom                                   : XCFun DFT Library      
  Mihaly Kallay                                 : mrcc  (arbitrary order and MRCC methods)
  Frank Weinhold                                : gennbo (NPA and NBO analysis)           
  Simon Mueller                                 : openCOSMO-RS                            
  Christopher J. Cramer and Donald G. Truhlar   : smd solvation model                     
  S Lehtola, MJT Oliveira, MAL Marques          : LibXC Library                           
  Liviu Ungur et al                             : ANISO software                          


 Your calculation uses the libint2 library for the computation of 2-el integrals
 For citations please refer to: http://libint.valeyev.net

 Your ORCA version has been built with support for libXC version: 6.2.2
 For citations please refer to: https://libxc.gitlab.io

 This ORCA versions uses:
   CBLAS   interface :  Fast vector & matrix operations
   LAPACKE interface :  Fast linear algebra routines
   SCALAPACK package :  Parallel linear algebra routines
   Shared memory     :  Shared parallel matrices


Reading of a custom orbital basis requested
Basis file: /Users/johannes/Documents/Uni/BasisSets/cc-pvdz.bas
Basis read successfully!



***************************************
The coordinates will be read from file: anthracene_opt_MP2_cc-pvdz.xyz
***************************************


================================================================================

----- Orbital basis set information -----
Basis read from file: /Users/johannes/Documents/Uni/BasisSets/cc-pvdz.bas

================================================================================
                                        WARNINGS
                       Please study these warnings very carefully!
================================================================================

WARNING: Old DensityContainer found on disk!
         Will remove this file - 
         If you want to keep old densities, please start your calculation with a different basename. 


================================================================================
                                       INPUT FILE
================================================================================
NAME = orca.inp
|  1> ! PAL8 nopop tightscf printmos RHF
|  2> %basis
|  3> GTOName = "/Users/johannes/Documents/Uni/BasisSets/cc-pvdz.bas"
|  4> end
|  5> * xyzfile 0 1 anthracene_opt_MP2_cc-pvdz.xyz
|  6> 
|  7>                          ****END OF INPUT****
================================================================================

                       ****************************
                       * Single Point Calculation *
                       ****************************

---------------------------------
CARTESIAN COORDINATES (ANGSTROEM)
---------------------------------
  C     -3.681166    0.714936    0.000000
  C     -2.487150    1.415846    0.000000
  C     -1.230655    0.725709   -0.000000
  C     -1.230655   -0.725709   -0.000000
  C     -2.487150   -1.415846   -0.000000
  C     -3.681166   -0.714936    0.000000
  C      0.000000    1.414441   -0.000000
  C      1.230655    0.725709   -0.000000
  C      0.000000   -1.414441   -0.000000
  C      1.230655   -0.725709    0.000000
  C      2.487150    1.415846   -0.000000
  C      3.681166    0.714936    0.000000
  C      3.681166   -0.714936    0.000000
  C      2.487150   -1.415846    0.000000
  H     -4.633029    1.256842    0.000000
  H     -2.485913    2.512365    0.000000
  H     -2.485913   -2.512365   -0.000000
  H     -4.633029   -1.256842    0.000000
  H      0.000000    2.512374   -0.000000
  H     -0.000000   -2.512374   -0.000000
  H      2.485913    2.512365   -0.000000
  H      4.633029    1.256842    0.000000
  H      4.633029   -1.256842    0.000000
  H      2.485913   -2.512365    0.000000

----------------------------
CARTESIAN COORDINATES (A.U.)
----------------------------
  NO LB      ZA    FRAG     MASS         X           Y           Z
   0 C     6.0000    0    12.011   -6.956396    1.351033    0.000000
   1 C     6.0000    0    12.011   -4.700033    2.675561    0.000000
   2 C     6.0000    0    12.011   -2.325601    1.371391   -0.000000
   3 C     6.0000    0    12.011   -2.325601   -1.371391   -0.000000
   4 C     6.0000    0    12.011   -4.700033   -2.675561   -0.000000
   5 C     6.0000    0    12.011   -6.956396   -1.351033    0.000000
   6 C     6.0000    0    12.011    0.000000    2.672906   -0.000000
   7 C     6.0000    0    12.011    2.325601    1.371391   -0.000000
   8 C     6.0000    0    12.011    0.000000   -2.672906   -0.000000
   9 C     6.0000    0    12.011    2.325601   -1.371391    0.000000
  10 C     6.0000    0    12.011    4.700033    2.675561   -0.000000
  11 C     6.0000    0    12.011    6.956395    1.351033    0.000000
  12 C     6.0000    0    12.011    6.956396   -1.351033    0.000000
  13 C     6.0000    0    12.011    4.700033   -2.675561    0.000000
  14 H     1.0000    0     1.008   -8.755157    2.375086    0.000000
  15 H     1.0000    0     1.008   -4.697695    4.747681    0.000000
  16 H     1.0000    0     1.008   -4.697695   -4.747681   -0.000000
  17 H     1.0000    0     1.008   -8.755157   -2.375086    0.000000
  18 H     1.0000    0     1.008    0.000000    4.747698   -0.000000
  19 H     1.0000    0     1.008   -0.000000   -4.747698   -0.000000
  20 H     1.0000    0     1.008    4.697695    4.747681   -0.000000
  21 H     1.0000    0     1.008    8.755157    2.375086    0.000000
  22 H     1.0000    0     1.008    8.755157   -2.375086    0.000000
  23 H     1.0000    0     1.008    4.697695   -4.747681    0.000000

--------------------------------
INTERNAL COORDINATES (ANGSTROEM)
--------------------------------
 C      0   0   0     0.000000000000     0.00000000     0.00000000
 C      1   0   0     1.384539036870     0.00000000     0.00000000
 C      2   1   0     1.433551156399   120.80821912     0.00000000
 C      3   2   1     1.451418142979   118.77802705     0.00000000
 C      4   3   2     1.433551160403   118.77802583     0.00000000
 C      5   4   3     1.384539043361   120.80822000     0.00000000
 C      3   2   1     1.410270888154   121.98856234   180.00000598
 C      7   3   2     1.410270883059   121.53317430   179.99999565
 C      4   3   2     1.410270895661   119.23341540   180.00000533
 C      9   4   3     1.410270882273   121.53317368     0.00000000
 C      8   7   3     1.433551130172   121.98855841   180.00000226
 C     11   8   7     1.384539016372   120.80821775   179.99999440
 C     12  11   8     1.429871253400   120.41375709     0.00000000
 C     13  12  11     1.384539024788   120.41375328     0.00000000
 H      1   2   3     1.095310957566   119.93292450   179.99999879
 H      2   1   3     1.096519714722   120.47840173   180.00000270
 H      5   4   3     1.096519712540   118.71337793   179.99999879
 H      6   5   4     1.095310979485   119.93292637   180.00000391
 H      7   3   2     1.097932361516   119.23341482     0.00000000
 H      9   4   3     1.097932355026   119.23341157   179.99999669
 H     11   8   7     1.096519715804   118.71338160     0.00000000
 H     12  11   8     1.095310962656   119.93292439   179.99999809
 H     13  12  11     1.095310996024   119.65331942   179.99999879
 H     14  13  12     1.096519705580   120.47840240   180.00000226

---------------------------
INTERNAL COORDINATES (A.U.)
---------------------------
 C      0   0   0     0.000000000000     0.00000000     0.00000000
 C      1   0   0     2.616399601408     0.00000000     0.00000000
 C      2   1   0     2.709019084560   120.80821912     0.00000000
 C      3   2   1     2.742782796034   118.77802705     0.00000000
 C      4   3   2     2.709019092126   118.77802583     0.00000000
 C      5   4   3     2.616399613674   120.80822000     0.00000000
 C      3   2   1     2.665025753253   121.98856234   180.00000598
 C      7   3   2     2.665025743624   121.53317430   179.99999565
 C      4   3   2     2.665025767439   119.23341540   180.00000533
 C      9   4   3     2.665025742139   121.53317368     0.00000000
 C      8   7   3     2.709019034999   121.98855841   180.00000226
 C     11   8   7     2.616399562672   120.80821775   179.99999440
 C     12  11   8     2.702065075693   120.41375709     0.00000000
 C     13  12  11     2.616399578575   120.41375328     0.00000000
 H      1   2   3     2.069837741283   119.93292450   179.99999879
 H      2   1   3     2.072121961269   120.47840173   180.00000270
 H      5   4   3     2.072121957147   118.71337793   179.99999879
 H      6   5   4     2.069837782704   119.93292637   180.00000391
 H      7   3   2     2.074791476834   119.23341482     0.00000000
 H      9   4   3     2.074791464571   119.23341157   179.99999669
 H     11   8   7     2.072121963314   118.71338160     0.00000000
 H     12  11   8     2.069837750902   119.93292439   179.99999809
 H     13  12  11     2.069837813958   119.65331942   179.99999879
 H     14  13  12     2.072121943995   120.47840240   180.00000226

---------------------
BASIS SET INFORMATION
---------------------
There are 2 groups of distinct atoms

 Group   1 Type C   : 19s5p1d contracted to 3s2p1d pattern {991/41/1}
 Group   2 Type H   : 5s1p contracted to 2s1p pattern {41/1}

Atom   0C    basis set group =>   1
Atom   1C    basis set group =>   1
Atom   2C    basis set group =>   1
Atom   3C    basis set group =>   1
Atom   4C    basis set group =>   1
Atom   5C    basis set group =>   1
Atom   6C    basis set group =>   1
Atom   7C    basis set group =>   1
Atom   8C    basis set group =>   1
Atom   9C    basis set group =>   1
Atom  10C    basis set group =>   1
Atom  11C    basis set group =>   1
Atom  12C    basis set group =>   1
Atom  13C    basis set group =>   1
Atom  14H    basis set group =>   2
Atom  15H    basis set group =>   2
Atom  16H    basis set group =>   2
Atom  17H    basis set group =>   2
Atom  18H    basis set group =>   2
Atom  19H    basis set group =>   2
Atom  20H    basis set group =>   2
Atom  21H    basis set group =>   2
Atom  22H    basis set group =>   2
Atom  23H    basis set group =>   2

Checking for AutoStart:
The File: orca.gbw exists
Trying to determine its content:
     ... Fine, the file contains calculation information
     ... Fine, the calculation information was read
     ... Fine, the file contains a basis set
     ... Fine, the basis set was read
     ... Fine, the file contains a geometry
     ... Fine, the geometry was read
     ... Fine, the file contains a set of orbitals
     ... Fine, the orbitals can be read
     => possible old guess file was deleted
     => GBW file was renamed to GES file
     => GES file is set as startup file
     => Guess is set to MORead
     ... now leaving AutoStart



           ************************************************************
           *        Program running with 8 parallel MPI-processes     *
           *              working on a common directory               *
           ************************************************************
------------------------------------------------------------------------------
                             ORCA STARTUP CALCULATIONS
------------------------------------------------------------------------------
------------------------------------------------------------------------------
                   ___                                                        
                  /   \      - P O W E R E D   B Y -                         
                 /     \                                                     
                 |  |  |   _    _      __       _____    __    __             
                 |  |  |  | |  | |    /  \     |  _  \  |  |  /  |          
                  \  \/   | |  | |   /    \    | | | |  |  | /  /          
                 / \  \   | |__| |  /  /\  \   | |_| |  |  |/  /          
                |  |  |   |  __  | /  /__\  \  |    /   |      \           
                |  |  |   | |  | | |   __   |  |    \   |  |\   \          
                \     /   | |  | | |  |  |  |  | |\  \  |  | \   \       
                 \___/    |_|  |_| |__|  |__|  |_| \__\ |__|  \__/        
                                                                              
                      - O R C A' S   B I G   F R I E N D -                    
                                      &                                       
                       - I N T E G R A L  F E E D E R -                       
                                                                              
 v1 FN, 2020, v2 2021, v3 2022-2024                                           
------------------------------------------------------------------------------


----------------------
SHARK INTEGRAL PACKAGE
----------------------

Number of atoms                             ...     24
Number of basis functions                   ...    344
Number of shells                            ...    212
Maximum angular momentum                    ...      2
Integral batch strategy                     ... SHARK/LIBINT Hybrid
RI-J (if used) integral strategy            ... SPLIT-RIJ (Revised 2003 algorithm where possible)
Printlevel                                  ...      1
Contraction scheme used                     ... PARTIAL GENERAL contraction
Prescreening option                         ... SCHWARTZ
   Thresh                                   ... 2.500e-11
   Tcut                                     ... 2.500e-12
   Tpresel                                  ... 2.500e-12 
Coulomb Range Separation                    ... NOT USED
Exchange Range Separation                   ... NOT USED
Multipole approximations                    ... NOT USED
Finite Nucleus Model                        ... NOT USED
CABS basis                                  ... NOT available
Auxiliary Coulomb fitting basis             ... NOT available
Auxiliary J/K fitting basis                 ... NOT available
Auxiliary Correlation fitting basis         ... NOT available
Auxiliary 'external' fitting basis          ... NOT available

Checking pre-screening integrals            ... done (  0.0 sec) Dimension = 212
Save PGC pre-screening integrals            ... done (  0.0 sec) Dimension = 212
Calculate PGC overlap integrals             ... done (  0.0 sec) Dimension = 114
Calculating pre-screening integrals (ORCA)  ... done (  0.0 sec) Dimension = 114
Check shell pair data                       ... done (  0.0 sec)
Shell pair information
Shell pair cut-off parameter TPreSel        ...   2.5e-12
Total number of shell pairs                 ...     22578
Shell pairs after pre-screening             ...     15940
Total number of primitive shell pairs       ...     40614
Primitive shell pairs kept                  ...     26074
          la=0 lb=0:   7695 shell pairs
          la=1 lb=0:   5222 shell pairs
          la=1 lb=1:    698 shell pairs
          la=2 lb=0:   1740 shell pairs
          la=2 lb=1:    492 shell pairs
          la=2 lb=2:     93 shell pairs

Calculating one electron integrals          ... done (  0.0 sec)
Calculating Nuclear repulsion               ... done (  0.0 sec) ENN=    760.928144821001 Eh

Diagonalization of the overlap matrix:
Smallest eigenvalue                        ... 1.268e-04
Time for diagonalization                   ...    0.004 sec
Threshold for overlap eigenvalues          ... 1.000e-07
Number of eigenvalues below threshold      ... 0
Time for construction of square roots      ...    0.001 sec
Total time needed                          ...    0.007 sec

-------------------
DFT GRID GENERATION
-------------------

General Integration Accuracy     IntAcc      ... 4.388
Radial Grid Type                 RadialGrid  ... OptM3 with GC (2021)
Angular Grid (max. ang.)         AngularGrid ... 4 (Lebedev-302)
Angular grid pruning method      GridPruning ... 4 (adaptive)
Weight generation scheme         WeightScheme... mBecke (2022)
Basis function cutoff            BFCut       ... 1.0000e-11
Integration weight cutoff        WCut        ... 1.0000e-14
Partially contracted basis set               ... off
Rotationally invariant grid construction     ... off
Angular grids for H and He will be reduced by one unit

Total number of grid points                  ...   115684
Total number of batches                      ...     1822
Average number of points per batch           ...       63
Average number of grid points per atom       ...     4820

---------------------
SHARK GRID GENERATION
---------------------

General Integration Accuracy     IntAcc      ... 4.388
Radial Grid Type                 RadialGrid  ... OptM3 with GC (2021)
Angular Grid (max. ang.)         AngularGrid ... 4 (Lebedev-302)
Angular grid pruning method      GridPruning ... 4 (adaptive)
Weight generation scheme         WeightScheme... mBecke (2022)
Basis function cutoff            BFCut       ... 1.0000e-11
Integration weight cutoff        WCut        ... 1.0000e-14
Partially contracted basis set               ... off
Rotationally invariant grid construction     ... off
Angular grids for H and He will be reduced by one unit
Steep s-basis detected: some atoms will have their radial
                        grid points doubled.

Total number of grid points                  ...   200032
Total number of batches                      ...     3136
Average number of points per batch           ...       63
Average number of grid points per atom       ...     8335
Initializing property integral containers    ... done (  0.0 sec)

SHARK setup successfully completed in   1.8 seconds

Maximum memory used throughout the entire STARTUP-calculation: 51.3 MB


           ************************************************************
           *        Program running with 8 parallel MPI-processes     *
           *              working on a common directory               *
           ************************************************************
-------------------------------------------------------------------------------
                                 ORCA GUESS
                   Start orbitals & Density for SCF / CASSCF
-------------------------------------------------------------------------------

------------
SCF SETTINGS
------------
Hamiltonian:
 Ab initio Hamiltonian  Method          .... Hartree-Fock(GTOs)


General Settings:
 Integral files         IntName         .... orca
 Hartree-Fock type      HFTyp           .... RHF
 Total Charge           Charge          ....    0
 Multiplicity           Mult            ....    1
 Number of Electrons    NEL             ....   94
 Basis Dimension        Dim             ....  246
 Nuclear Repulsion      ENuc            ....    760.9281448210 Eh

Convergence Acceleration:
 AO-DIIS                CNVDIIS         .... on
   Start iteration      DIISMaxIt       ....    12
   Startup error        DIISStart       ....  0.200000
   # of expansion vecs  DIISMaxEq       ....     5
   Bias factor          DIISBfac        ....   1.050
   Max. coefficient     DIISMaxC        ....  10.000
 MO-DIIS                CNVKDIIS        .... off
 Trust-Rad. Augm. Hess. CNVTRAH         .... auto
   Auto Start mean grad. ratio tolernc. ....  1.125000
   Auto Start start iteration           ....     1
   Auto Start num. interpolation iter.  ....    10
   Max. Number of Micro iterations      ....    24
   Max. Number of Macro iterations      .... Maxiter - #DIIS iter
   Number of Davidson start vectors     ....     2
   Converg. threshold    (grad. norm)   ....   1.000e-05
   Grad. Scal. Fac. for Micro threshold ....   0.100
   Minimum threshold for Micro iter.    ....   1.000e-02
   NR start threshold (gradient norm)   ....   1.000e-04
   Initial trust radius                 ....   0.400
   Minimum AH scaling param. (alpha)    ....   1.000
   Maximum AH scaling param. (alpha)    .... 1000.000
   Quad. conv. algorithm                .... NR
   White noise on init. David. guess    .... on
   Maximum white noise                  ....   0.010
   Pseudo random numbers                .... off
   Inactive MOs                         .... canonical
   Orbital update algorithm             .... Taylor
   Preconditioner                       .... Diag
   Full preconditioner red. dimension   ....   250
 SOSCF                  CNVSOSCF        .... on
   Start iteration      SOSCFMaxIt      ....   150
   Startup grad/error   SOSCFStart      ....  0.003300
   Hessian update       SOSCFHessUp     .... L-BFGS
 Level Shifting         CNVShift        .... on
   Level shift para.    LevelShift      ....    0.2500
   Turn off err/grad.   ShiftErr        ....    0.0010
 Zerner damping         CNVZerner       .... off
 Static damping         CNVDamp         .... on
   Fraction old density DampFac         ....    0.7000
   Max. Damping (<1)    DampMax         ....    0.9800
   Min. Damping (>=0)   DampMin         ....    0.0000
   Turn off err/grad.   DampErr         ....    0.1000

SCF Procedure:
 Maximum # iterations   MaxIter         ....   125
 SCF integral mode      SCFMode         .... Direct
   Integral package                     .... SHARK and LIBINT hybrid scheme
 Reset frequency        DirectResetFreq ....    20
 Integral Threshold     Thresh          ....  2.500e-11 Eh
 Primitive CutOff       TCut            ....  2.500e-12 Eh

Convergence Tolerance:
 Convergence Check Mode ConvCheckMode   .... Total+1el-Energy
 Convergence forced     ConvForced      .... 0
 Energy Change          TolE            ....  1.000e-08 Eh
 1-El. energy change                    ....  1.000e-05 Eh
 Orbital Gradient       TolG            ....  1.000e-05
 Orbital Rotation angle TolX            ....  1.000e-05
 DIIS Error             TolErr          ....  5.000e-07

---------------------
INITIAL GUESS: MOREAD
---------------------
Guess MOs are being read from file: orca.ges
Input geometry compatible with but different from current geometry
Atom 0: N(Shells)= 6 and 10 - projection required
Input basis set needs projection
NBasis(read)= 560
NBasis(calc)= 246
Basis set overlap was calculated
Using GuessMode=FMatrix for the initial guess
C*T matrix was formed
Effective Fockian was calculated
Effective Fockian was diagonalized
Initial density was built
                      ------------------
                      INITIAL GUESS DONE (   0.0 sec)
                      ------------------
             **** ENERGY FILE WAS UPDATED (orca.en.tmp) ****
Finished Guess after   0.1 sec
Maximum memory used throughout the entire GUESS-calculation: 22.6 MB


           ************************************************************
           *        Program running with 8 parallel MPI-processes     *
           *              working on a common directory               *
           ************************************************************

-------------------------------------------------------------------------------------------
                                      ORCA LEAN-SCF
                              memory conserving SCF solver
-------------------------------------------------------------------------------------------

----------------------------------------D-I-I-S--------------------------------------------
Iteration    Energy (Eh)           Delta-E    RMSDP     MaxDP     DIISErr   Damp  Time(sec)
-------------------------------------------------------------------------------------------
               ***  Starting incremental Fock matrix formation  ***
    1    -534.6610884724140078     0.00e+00  6.35e-03  1.69e-01  4.04e-01  0.700   2.3
    2    -535.0582775222541159    -3.97e-01  4.69e-03  1.20e-01  2.92e-01  0.700   2.2
    3    -535.3413014883218466    -2.83e-01  3.35e-03  8.39e-02  2.10e-01  0.700   2.2
                               ***Turning on AO-DIIS***
    4    -535.5427334645315796    -2.01e-01  2.50e-03  5.81e-02  1.51e-01  0.700   2.2
    5    -535.6859318982077411    -1.43e-01  1.79e-03  4.07e-02  1.07e-01  0.700   2.1
    6    -535.7877885306248800    -1.02e-01  1.27e-03  2.86e-02  7.51e-02  0.700   2.1
    7    -535.8600236888706831    -7.22e-02  3.01e-03  6.70e-02  5.28e-02  0.000   2.1
                              *** Initializing SOSCF ***
---------------------------------------S-O-S-C-F--------------------------------------
Iteration    Energy (Eh)           Delta-E    RMSDP     MaxDP     MaxGrad    Time(sec)
--------------------------------------------------------------------------------------
    8    -536.0316340902419370    -1.72e-01  1.01e-04  2.69e-03  1.48e-03     2.2
               *** Restarting incremental Fock matrix formation ***
    9    -536.0316805978974344    -4.65e-05  6.59e-05  1.49e-03  5.12e-04     2.3
   10    -536.0316960688747940    -1.55e-05  5.61e-05  1.36e-03  3.44e-04     1.8
   11    -536.0316997420858343    -3.67e-06  1.06e-05  2.85e-04  1.76e-04     1.8
   12    -536.0317002599093712    -5.18e-07  3.10e-06  7.41e-05  3.10e-05     1.7
   13    -536.0317002834555069    -2.35e-08  1.06e-06  2.54e-05  7.14e-06     1.5
   14    -536.0317002854816337    -2.03e-09  4.34e-07  1.28e-05  3.22e-06     1.4
                 **** Energy Check signals convergence ****

               *****************************************************
               *                     SUCCESS                       *
               *           SCF CONVERGED AFTER  14 CYCLES          *
               *****************************************************

             **** ENERGY FILE WAS UPDATED (orca.en.tmp) ****

----------------
TOTAL SCF ENERGY
----------------

Total Energy       :       -536.03170028548163 Eh          -14586.16411 eV

Components:
Nuclear Repulsion  :        760.92814482100096 Eh           20705.90749 eV
Electronic Energy  :      -1296.95984510648259 Eh          -35292.07160 eV
One Electron Energy:      -2234.09302434309166 Eh          -60792.76184 eV
Two Electron Energy:        937.13317923660907 Eh           25500.69024 eV

Virial components:
Potential Energy   :      -1071.01605623543946 Eh          -29143.82853 eV
Kinetic Energy     :        534.98435594995783 Eh           14557.66442 eV
Virial Ratio       :          2.00195771020942

---------------
SCF CONVERGENCE
---------------

  Last Energy change         ...    2.0261e-09  Tolerance :   1.0000e-08
  Last MAX-Density change    ...    1.2831e-05  Tolerance :   1.0000e-07
  Last RMS-Density change    ...    4.3387e-07  Tolerance :   5.0000e-09
  Last DIIS Error            ...    1.4779e-03  Tolerance :   5.0000e-07
  Last Orbital Gradient      ...    3.2246e-06  Tolerance :   1.0000e-05
  Last Orbital Rotation      ...    9.4794e-06  Tolerance :   1.0000e-05


----------------
ORBITAL ENERGIES
----------------

  NO   OCC          E(Eh)            E(eV) 
   0   2.0000     -11.253762      -306.2304 
   1   2.0000     -11.253686      -306.2284 
   2   2.0000     -11.252915      -306.2074 
   3   2.0000     -11.252787      -306.2039 
   4   2.0000     -11.247982      -306.0732 
   5   2.0000     -11.247945      -306.0721 
   6   2.0000     -11.247942      -306.0721 
   7   2.0000     -11.247894      -306.0707 
   8   2.0000     -11.247585      -306.0623 
   9   2.0000     -11.247571      -306.0620 
  10   2.0000     -11.246676      -306.0376 
  11   2.0000     -11.246673      -306.0375 
  12   2.0000     -11.246086      -306.0215 
  13   2.0000     -11.246085      -306.0215 
  14   2.0000      -1.180383       -32.1199 
  15   2.0000      -1.141039       -31.0493 
  16   2.0000      -1.078871       -29.3576 
  17   2.0000      -1.060910       -28.8688 
  18   2.0000      -1.019141       -27.7322 
  19   2.0000      -1.003222       -27.2991 
  20   2.0000      -0.956514       -26.0281 
  21   2.0000      -0.877047       -23.8657 
  22   2.0000      -0.838918       -22.8281 
  23   2.0000      -0.811153       -22.0726 
  24   2.0000      -0.807199       -21.9650 
  25   2.0000      -0.743333       -20.2271 
  26   2.0000      -0.702760       -19.1231 
  27   2.0000      -0.681321       -18.5397 
  28   2.0000      -0.647076       -17.6078 
  29   2.0000      -0.635410       -17.2904 
  30   2.0000      -0.624519       -16.9940 
  31   2.0000      -0.613178       -16.6854 
  32   2.0000      -0.587095       -15.9757 
  33   2.0000      -0.575980       -15.6732 
  34   2.0000      -0.568536       -15.4706 
  35   2.0000      -0.545883       -14.8542 
  36   2.0000      -0.539888       -14.6911 
  37   2.0000      -0.533972       -14.5301 
  38   2.0000      -0.495629       -13.4867 
  39   2.0000      -0.488609       -13.2957 
  40   2.0000      -0.482881       -13.1399 
  41   2.0000      -0.470782       -12.8106 
  42   2.0000      -0.408664       -11.1203 
  43   2.0000      -0.402639       -10.9564 
  44   2.0000      -0.343476        -9.3465 
  45   2.0000      -0.307589        -8.3699 
  46   2.0000      -0.254128        -6.9152 
  47   0.0000       0.052049         1.4163 
  48   0.0000       0.107729         2.9315 
  49   0.0000       0.144986         3.9453 
  50   0.0000       0.185897         5.0585 
  51   0.0000       0.186019         5.0618 
  52   0.0000       0.188989         5.1426 
  53   0.0000       0.189571         5.1585 
  54   0.0000       0.218669         5.9503 
  55   0.0000       0.219686         5.9780 
  56   0.0000       0.224999         6.1225 
  57   0.0000       0.243389         6.6229 
  58   0.0000       0.244335         6.6487 
  59   0.0000       0.257699         7.0124 
  60   0.0000       0.280391         7.6298 
  61   0.0000       0.307592         8.3700 
  62   0.0000       0.339024         9.2253 
  63   0.0000       0.364196         9.9103 
  64   0.0000       0.400013        10.8849 
  65   0.0000       0.424770        11.5586 
  66   0.0000       0.424794        11.5592 
  67   0.0000       0.429153        11.6778 
  68   0.0000       0.458869        12.4865 
  69   0.0000       0.460415        12.5285 
  70   0.0000       0.468175        12.7397 
  71   0.0000       0.478098        13.0097 
  72   0.0000       0.505395        13.7525 
  73   0.0000       0.513574        13.9750 
  74   0.0000       0.588270        16.0076 
  75   0.0000       0.590523        16.0690 
  76   0.0000       0.628776        17.1099 
  77   0.0000       0.641029        17.4433 
  78   0.0000       0.662750        18.0344 
  79   0.0000       0.665059        18.0972 
  80   0.0000       0.665126        18.0990 
  81   0.0000       0.668392        18.1879 
  82   0.0000       0.683750        18.6058 
  83   0.0000       0.690815        18.7980 
  84   0.0000       0.697838        18.9891 
  85   0.0000       0.700687        19.0667 
  86   0.0000       0.705977        19.2106 
  87   0.0000       0.718601        19.5541 
  88   0.0000       0.727375        19.7929 
  89   0.0000       0.728955        19.8359 
  90   0.0000       0.733404        19.9569 
  91   0.0000       0.734493        19.9866 
  92   0.0000       0.738048        20.0833 
  93   0.0000       0.752065        20.4647 
  94   0.0000       0.754988        20.5443 
  95   0.0000       0.762190        20.7403 
  96   0.0000       0.767665        20.8892 
  97   0.0000       0.775356        21.0985 
  98   0.0000       0.784921        21.3588 
  99   0.0000       0.792538        21.5661 
 100   0.0000       0.795692        21.6519 
 101   0.0000       0.846599        23.0371 
 102   0.0000       0.848483        23.0884 
 103   0.0000       0.856051        23.2943 
 104   0.0000       0.864951        23.5365 
 105   0.0000       0.871997        23.7282 
 106   0.0000       0.875627        23.8270 
 107   0.0000       0.901243        24.5241 
 108   0.0000       0.902239        24.5512 
 109   0.0000       0.913685        24.8626 
 110   0.0000       0.918973        25.0065 
 111   0.0000       0.936750        25.4903 
 112   0.0000       0.948761        25.8171 
 113   0.0000       0.951402        25.8890 
 114   0.0000       0.983503        26.7625 
 115   0.0000       0.992381        27.0041 
 116   0.0000       0.998301        27.1651 
 117   0.0000       1.045633        28.4531 
 118   0.0000       1.064362        28.9628 
 119   0.0000       1.084332        29.5062 
 120   0.0000       1.092260        29.7219 
 121   0.0000       1.115277        30.3482 
 122   0.0000       1.121023        30.5046 
 123   0.0000       1.127787        30.6886 
 124   0.0000       1.129161        30.7260 
 125   0.0000       1.131279        30.7837 
 126   0.0000       1.138634        30.9838 
 127   0.0000       1.148955        31.2647 
 128   0.0000       1.155522        31.4434 
 129   0.0000       1.173152        31.9231 
 130   0.0000       1.183883        32.2151 
 131   0.0000       1.197183        32.5770 
 132   0.0000       1.211899        32.9774 
 133   0.0000       1.214560        33.0499 
 134   0.0000       1.228563        33.4309 
 135   0.0000       1.230042        33.4712 
 136   0.0000       1.239844        33.7379 
 137   0.0000       1.242658        33.8144 
 138   0.0000       1.274095        34.6699 
 139   0.0000       1.276524        34.7360 
 140   0.0000       1.294074        35.2135 
 141   0.0000       1.299868        35.3712 
 142   0.0000       1.316829        35.8327 
 143   0.0000       1.321849        35.9693 
 144   0.0000       1.331375        36.2286 
 145   0.0000       1.341656        36.5083 
 146   0.0000       1.386768        37.7359 
 147   0.0000       1.389247        37.8033 
 148   0.0000       1.407550        38.3014 
 149   0.0000       1.530838        41.6562 
 150   0.0000       1.533467        41.7278 
 151   0.0000       1.542592        41.9761 
 152   0.0000       1.614933        43.9446 
 153   0.0000       1.620562        44.0977 
 154   0.0000       1.626771        44.2667 
 155   0.0000       1.639505        44.6132 
 156   0.0000       1.657032        45.0901 
 157   0.0000       1.667611        45.3780 
 158   0.0000       1.688948        45.9586 
 159   0.0000       1.693180        46.0738 
 160   0.0000       1.726267        46.9741 
 161   0.0000       1.732127        47.1336 
 162   0.0000       1.734502        47.1982 
 163   0.0000       1.745355        47.4935 
 164   0.0000       1.767330        48.0915 
 165   0.0000       1.776765        48.3482 
 166   0.0000       1.777875        48.3784 
 167   0.0000       1.800012        48.9808 
 168   0.0000       1.826662        49.7060 
 169   0.0000       1.850898        50.3655 
 170   0.0000       1.857164        50.5360 
 171   0.0000       1.870918        50.9103 
 172   0.0000       1.877301        51.0840 
 173   0.0000       1.881896        51.2090 
 174   0.0000       1.902232        51.7624 
 175   0.0000       1.907644        51.9096 
 176   0.0000       1.909917        51.9715 
 177   0.0000       1.924906        52.3794 
 178   0.0000       1.943544        52.8865 
 179   0.0000       1.953103        53.1466 
 180   0.0000       1.959069        53.3090 
 181   0.0000       1.961829        53.3841 
 182   0.0000       1.973943        53.7137 
 183   0.0000       1.983897        53.9846 
 184   0.0000       1.988638        54.1136 
 185   0.0000       2.014128        54.8072 
 186   0.0000       2.024665        55.0939 
 187   0.0000       2.028680        55.2032 
 188   0.0000       2.031733        55.2863 
 189   0.0000       2.032712        55.3129 
 190   0.0000       2.041347        55.5479 
 191   0.0000       2.071173        56.3595 
 192   0.0000       2.096688        57.0538 
 193   0.0000       2.100907        57.1686 
 194   0.0000       2.111690        57.4620 
 195   0.0000       2.122472        57.7554 
 196   0.0000       2.138144        58.1818 
 197   0.0000       2.139373        58.2153 
 198   0.0000       2.151880        58.5556 
 199   0.0000       2.162380        58.8414 
 200   0.0000       2.167757        58.9877 
 201   0.0000       2.181165        59.3525 
 202   0.0000       2.220475        60.4222 
 203   0.0000       2.226219        60.5785 
 204   0.0000       2.243439        61.0471 
 205   0.0000       2.251069        61.2547 
 206   0.0000       2.251438        61.2647 
 207   0.0000       2.295727        62.4699 
 208   0.0000       2.308761        62.8246 
 209   0.0000       2.324195        63.2445 
 210   0.0000       2.324551        63.2542 
 211   0.0000       2.327753        63.3414 
 212   0.0000       2.329203        63.3808 
 213   0.0000       2.435050        66.2611 
 214   0.0000       2.466040        67.1043 
 215   0.0000       2.468231        67.1640 
 216   0.0000       2.468940        67.1833 
 217   0.0000       2.495833        67.9151 
 218   0.0000       2.504868        68.1609 
 219   0.0000       2.527291        68.7711 
 220   0.0000       2.584030        70.3150 
 221   0.0000       2.596457        70.6532 
 222   0.0000       2.624677        71.4211 
 223   0.0000       2.641794        71.8869 
 224   0.0000       2.710335        73.7520 
 225   0.0000       2.710366        73.7528 
 226   0.0000       2.744731        74.6879 
 227   0.0000       2.759091        75.0787 
 228   0.0000       2.765375        75.2497 
 229   0.0000       2.770952        75.4014 
 230   0.0000       2.893024        78.7232 
 231   0.0000       2.903230        79.0009 
 232   0.0000       2.939711        79.9936 
 233   0.0000       2.967194        80.7414 
 234   0.0000       3.012026        81.9614 
 235   0.0000       3.017993        82.1238 
 236   0.0000       3.062348        83.3307 
 237   0.0000       3.069958        83.5378 
 238   0.0000       3.095376        84.2295 
 239   0.0000       3.133243        85.2599 
 240   0.0000       3.205643        87.2300 
 241   0.0000       3.234601        88.0180 
 242   0.0000       3.287910        89.4686 
 243   0.0000       3.650608        99.3381 
 244   0.0000       3.870492       105.3215 
 245   0.0000       3.885627       105.7333 
------------------
MOLECULAR ORBITALS (RHF, ROHF)
------------------
                      0         1         2         3         4         5   
                 -11.25376 -11.25369 -11.25291 -11.25279 -11.24798 -11.24794
                   2.00000   2.00000   2.00000   2.00000   2.00000   2.00000
                  --------  --------  --------  --------  --------  --------
  0C   1s         0.002497 -0.002633  0.004283 -0.004613 -0.271118  0.040913
  0C   2s        -0.000257  0.000122  0.000129 -0.000075 -0.002034  0.000115
  0C   3s         0.000945 -0.000197 -0.001412  0.000658  0.001607  0.002697
  0C   1pz        0.000000 -0.000000  0.000000 -0.000000  0.000000 -0.000000
  0C   1px       -0.000050  0.000061 -0.000014 -0.000003  0.000044  0.000041
  0C   1py       -0.000001  0.000018 -0.000014  0.000006 -0.000013  0.000007
  0C   2pz       -0.000000  0.000000  0.000000  0.000000 -0.000000 -0.000000
  0C   2px        0.000237 -0.000009 -0.000520  0.000202 -0.000079  0.001494
  0C   2py        0.000341 -0.000144  0.000249 -0.000049  0.000130 -0.000317
  0C   1dz2      -0.000050  0.000029 -0.000007  0.000025 -0.000002 -0.000077
  0C   1dxz      -0.000000  0.000000  0.000000 -0.000000  0.000000 -0.000000
  0C   1dyz      -0.000000  0.000000 -0.000000  0.000000 -0.000000 -0.000000
  0C   1dx2y2     0.000010 -0.000003  0.000018 -0.000012 -0.000047 -0.000030
  0C   1dxy      -0.000005  0.000011 -0.000004 -0.000009  0.000039  0.000040
  1C   1s         0.035594 -0.036410  0.041916 -0.043623 -0.253508  0.096236
  1C   2s        -0.000147  0.000003  0.000117 -0.000241 -0.002050  0.001177
  1C   3s         0.001111 -0.001194  0.001056 -0.000173  0.002723 -0.005741
  1C   1pz       -0.000000  0.000000  0.000000 -0.000000 -0.000000 -0.000000
  1C   1px       -0.000057 -0.000002 -0.000025  0.000033 -0.000032 -0.000050
  1C   1py        0.000045 -0.000052  0.000020 -0.000024 -0.000053  0.000035
  1C   2pz        0.000000 -0.000000  0.000000 -0.000000 -0.000000  0.000000
  1C   2px        0.001329 -0.000626 -0.000366  0.000365  0.000536  0.000038
  1C   2py       -0.000219  0.000363 -0.001281  0.000806 -0.000483  0.002372
  1C   1dz2       0.000077 -0.000096  0.000152 -0.000179  0.000025  0.000116
  1C   1dxz       0.000000 -0.000000  0.000000 -0.000000 -0.000000  0.000000
  1C   1dyz      -0.000000  0.000000 -0.000000 -0.000000  0.000000 -0.000000
  1C   1dx2y2     0.000003  0.000004 -0.000041  0.000057  0.000013 -0.000023
  1C   1dxy       0.000090 -0.000102  0.000089 -0.000081 -0.000036  0.000014
  2C   1s         0.494994 -0.499400  0.492938 -0.498997 -0.024943  0.069044
  2C   2s         0.004124 -0.004495  0.004947 -0.004814 -0.000294  0.000914
  2C   3s        -0.005671  0.006434 -0.010377  0.008475  0.001243 -0.003388
  2C   1pz        0.000000 -0.000000  0.000000 -0.000000 -0.000000  0.000000
  2C   1px       -0.000081 -0.000001 -0.000040  0.000038 -0.000116  0.000123
  2C   1py        0.000012 -0.000032 -0.000077  0.000077 -0.000010  0.000008
  2C   2pz       -0.000000  0.000000 -0.000000  0.000000 -0.000000  0.000000
  2C   2px        0.000069  0.000295  0.000574 -0.000233  0.001970 -0.006928
  2C   2py       -0.000937  0.001201  0.004096 -0.003558  0.000180 -0.001051
  2C   1dz2      -0.000046 -0.000006 -0.000277  0.000279  0.000075 -0.000292
  2C   1dxz      -0.000000 -0.000000 -0.000000  0.000000 -0.000000 -0.000000
  2C   1dyz       0.000000 -0.000000 -0.000000 -0.000000 -0.000000  0.000000
  2C   1dx2y2     0.000133 -0.000112  0.000077 -0.000012 -0.000023 -0.000060
  2C   1dxy      -0.000003  0.000003  0.000029 -0.000021 -0.000053  0.000043
  3C   1s         0.494994 -0.499399 -0.492939  0.498998 -0.024948 -0.069049
  3C   2s         0.004124 -0.004495 -0.004947  0.004814 -0.000294 -0.000915
  3C   3s        -0.005671  0.006434  0.010377 -0.008475  0.001243  0.003388
  3C   1pz       -0.000000 -0.000000  0.000000  0.000000  0.000000  0.000000
  3C   1px       -0.000081 -0.000001  0.000040 -0.000038 -0.000116 -0.000123
  3C   1py       -0.000012  0.000032 -0.000077  0.000077  0.000010  0.000008
  3C   2pz        0.000000 -0.000000 -0.000000 -0.000000  0.000000 -0.000000
  3C   2px        0.000069  0.000295 -0.000574  0.000233  0.001970  0.006928
  3C   2py        0.000937 -0.001201  0.004096 -0.003558 -0.000180 -0.001051
  3C   1dz2      -0.000046 -0.000006  0.000277 -0.000279  0.000075  0.000292
  3C   1dxz       0.000000  0.000000 -0.000000  0.000000  0.000000 -0.000000
  3C   1dyz       0.000000 -0.000000  0.000000 -0.000000 -0.000000 -0.000000
  3C   1dx2y2     0.000133 -0.000112 -0.000077  0.000012 -0.000023  0.000060
  3C   1dxy       0.000003 -0.000003  0.000029 -0.000021  0.000053  0.000043
  4C   1s         0.035594 -0.036410 -0.041916  0.043623 -0.253515 -0.096157
  4C   2s        -0.000147  0.000003 -0.000117  0.000241 -0.002050 -0.001176
  4C   3s         0.001111 -0.001194 -0.001056  0.000173  0.002724  0.005741
  4C   1pz        0.000000 -0.000000 -0.000000 -0.000000 -0.000000 -0.000000
  4C   1px       -0.000057 -0.000002  0.000025 -0.000033 -0.000032  0.000050
  4C   1py       -0.000045  0.000052  0.000020 -0.000024  0.000053  0.000035
  4C   2pz       -0.000000  0.000000  0.000000  0.000000  0.000000  0.000000
  4C   2px        0.001329 -0.000626  0.000366 -0.000365  0.000536 -0.000039
  4C   2py        0.000219 -0.000363 -0.001281  0.000806  0.000483  0.002372
  4C   1dz2       0.000077 -0.000096 -0.000152  0.000179  0.000025 -0.000116
  4C   1dxz      -0.000000  0.000000  0.000000 -0.000000  0.000000 -0.000000
  4C   1dyz      -0.000000  0.000000  0.000000  0.000000 -0.000000  0.000000
  4C   1dx2y2     0.000003  0.000004  0.000041 -0.000057  0.000013  0.000023
  4C   1dxy      -0.000090  0.000102  0.000089 -0.000081  0.000036  0.000014
  5C   1s         0.002497 -0.002633 -0.004283  0.004613 -0.271121 -0.040823
  5C   2s        -0.000257  0.000122 -0.000129  0.000075 -0.002034 -0.000114
  5C   3s         0.000945 -0.000197  0.001412 -0.000658  0.001607 -0.002698
  5C   1pz       -0.000000  0.000000  0.000000 -0.000000  0.000000  0.000000
  5C   1px       -0.000050  0.000061  0.000014  0.000003  0.000044 -0.000041
  5C   1py        0.000001 -0.000018 -0.000014  0.000006  0.000013  0.000007
  5C   2pz        0.000000 -0.000000 -0.000000  0.000000 -0.000000  0.000000
  5C   2px        0.000237 -0.000009  0.000520 -0.000202 -0.000079 -0.001494
  5C   2py       -0.000341  0.000144  0.000249 -0.000049 -0.000130 -0.000317
  5C   1dz2      -0.000050  0.000029  0.000007 -0.000025 -0.000002  0.000077
  5C   1dxz       0.000000 -0.000000 -0.000000 -0.000000 -0.000000  0.000000
  5C   1dyz       0.000000 -0.000000 -0.000000  0.000000  0.000000  0.000000
  5C   1dx2y2     0.000010 -0.000003 -0.000018  0.000012 -0.000047  0.000030
  5C   1dxy       0.000005 -0.000011 -0.000004 -0.000009 -0.000039  0.000040
  6C   1s         0.092886  0.000001  0.111076  0.000001  0.473926 -0.686004
  6C   2s        -0.000091 -0.000000  0.000615  0.000000  0.004530 -0.006878
  6C   3s         0.002862  0.000000 -0.000726 -0.000000 -0.007883  0.017218
  6C   1pz       -0.000000 -0.000000 -0.000000  0.000000  0.000000  0.000000
  6C   1px        0.000000 -0.000094  0.000000 -0.000119 -0.000000  0.000000
  6C   1py        0.000095  0.000000  0.000062  0.000000  0.000061 -0.000056
  6C   2pz        0.000000  0.000000  0.000000  0.000000  0.000000 -0.000000
  6C   2px       -0.000000  0.002396  0.000000 -0.000642  0.000000 -0.000000
  6C   2py       -0.000815 -0.000000 -0.001473 -0.000000  0.001649 -0.004493
  6C   1dz2       0.000146  0.000000  0.000335  0.000000 -0.000155  0.000268
  6C   1dxz       0.000000  0.000000  0.000000  0.000000  0.000000  0.000000
  6C   1dyz      -0.000000 -0.000000 -0.000000  0.000000 -0.000000  0.000000
  6C   1dx2y2     0.000040  0.000000 -0.000079 -0.000000 -0.000048  0.000037
  6C   1dxy      -0.000000  0.000105 -0.000000  0.000116 -0.000000  0.000000
  7C   1s         0.494985  0.499407  0.492935  0.499003 -0.024945  0.069049
  7C   2s         0.004124  0.004495  0.004947  0.004814 -0.000294  0.000915
  7C   3s        -0.005671 -0.006434 -0.010377 -0.008476  0.001243 -0.003388
  7C   1pz        0.000000  0.000000  0.000000  0.000000 -0.000000  0.000000
  7C   1px        0.000081 -0.000001  0.000040  0.000038  0.000116 -0.000123
  7C   1py        0.000012  0.000032 -0.000077 -0.000077 -0.000010  0.000008
  7C   2pz       -0.000000 -0.000000 -0.000000 -0.000000 -0.000000  0.000000
  7C   2px       -0.000069  0.000295 -0.000574 -0.000233 -0.001970  0.006928
  7C   2py       -0.000937 -0.001201  0.004096  0.003558  0.000180 -0.001051
  7C   1dz2      -0.000046  0.000006 -0.000277 -0.000279  0.000075 -0.000292
  7C   1dxz       0.000000 -0.000000  0.000000  0.000000  0.000000  0.000000
  7C   1dyz       0.000000  0.000000 -0.000000 -0.000000 -0.000000 -0.000000
  7C   1dx2y2     0.000133  0.000112  0.000077  0.000012 -0.000023 -0.000060
  7C   1dxy       0.000003  0.000003 -0.000029 -0.000021  0.000053 -0.000043
  8C   1s         0.092887  0.000001 -0.111076 -0.000000  0.473972  0.685989
  8C   2s        -0.000091  0.000000 -0.000615 -0.000000  0.004531  0.006877
  8C   3s         0.002862  0.000000  0.000726  0.000000 -0.007884 -0.017217
  8C   1pz        0.000000  0.000000  0.000000  0.000000  0.000000  0.000000
  8C   1px        0.000000 -0.000094 -0.000000  0.000119 -0.000000  0.000000
  8C   1py       -0.000095 -0.000000  0.000062  0.000000 -0.000061 -0.000056
  8C   2pz       -0.000000 -0.000000  0.000000  0.000000 -0.000000 -0.000000
  8C   2px       -0.000000  0.002396  0.000000  0.000642  0.000000 -0.000000
  8C   2py        0.000815  0.000000 -0.001473 -0.000000 -0.001649 -0.004493
  8C   1dz2       0.000146  0.000000 -0.000335 -0.000000 -0.000155 -0.000268
  8C   1dxz      -0.000000 -0.000000  0.000000  0.000000 -0.000000  0.000000
  8C   1dyz      -0.000000 -0.000000 -0.000000 -0.000000 -0.000000 -0.000000
  8C   1dx2y2     0.000040  0.000000  0.000079  0.000000 -0.000048 -0.000037
  8C   1dxy       0.000000 -0.000105 -0.000000  0.000116  0.000000 -0.000000
  9C   1s         0.494987  0.499409 -0.492932 -0.499001 -0.024949 -0.069045
  9C   2s         0.004124  0.004495 -0.004947 -0.004814 -0.000294 -0.000915
  9C   3s        -0.005671 -0.006434  0.010377  0.008476  0.001243  0.003388
  9C   1pz       -0.000000 -0.000000  0.000000  0.000000 -0.000000  0.000000
  9C   1px        0.000081 -0.000001 -0.000040 -0.000038  0.000116  0.000123
  9C   1py       -0.000012 -0.000032 -0.000077 -0.000077  0.000010  0.000008
  9C   2pz        0.000000  0.000000 -0.000000 -0.000000 -0.000000 -0.000000
  9C   2px       -0.000069  0.000295  0.000574  0.000233 -0.001970 -0.006928
  9C   2py        0.000937  0.001201  0.004096  0.003558 -0.000180 -0.001051
  9C   1dz2      -0.000046  0.000006  0.000277  0.000279  0.000075  0.000292
  9C   1dxz      -0.000000  0.000000 -0.000000 -0.000000 -0.000000  0.000000
  9C   1dyz       0.000000  0.000000  0.000000  0.000000 -0.000000  0.000000
  9C   1dx2y2     0.000133  0.000112 -0.000077 -0.000012 -0.000023  0.000060
  9C   1dxy      -0.000003 -0.000003 -0.000029 -0.000021 -0.000053 -0.000043
 10C   1s         0.035594  0.036410  0.041916  0.043623 -0.253488  0.096180
 10C   2s        -0.000147 -0.000003  0.000117  0.000241 -0.002050  0.001177
 10C   3s         0.001111  0.001194  0.001056  0.000173  0.002723 -0.005741
 10C   1pz       -0.000000 -0.000000  0.000000 -0.000000 -0.000000 -0.000000
 10C   1px        0.000057 -0.000002  0.000025  0.000033  0.000032  0.000050
 10C   1py        0.000045  0.000052  0.000020  0.000024 -0.000053  0.000035
 10C   2pz        0.000000  0.000000  0.000000  0.000000 -0.000000  0.000000
 10C   2px       -0.001329 -0.000626  0.000366  0.000365 -0.000536 -0.000039
 10C   2py       -0.000219 -0.000363 -0.001281 -0.000806 -0.000483  0.002372
 10C   1dz2       0.000077  0.000096  0.000152  0.000179  0.000025  0.000116
 10C   1dxz      -0.000000 -0.000000 -0.000000 -0.000000 -0.000000 -0.000000
 10C   1dyz      -0.000000 -0.000000  0.000000  0.000000  0.000000 -0.000000
 10C   1dx2y2     0.000003 -0.000004 -0.000041 -0.000057  0.000013 -0.000023
 10C   1dxy      -0.000090 -0.000102 -0.000089 -0.000081  0.000036 -0.000014
 11C   1s         0.002497  0.002633  0.004283  0.004613 -0.271096  0.040850
 11C   2s        -0.000257 -0.000122  0.000129  0.000075 -0.002034  0.000115
 11C   3s         0.000945  0.000197 -0.001412 -0.000658  0.001607  0.002697
 11C   1pz        0.000000  0.000000  0.000000  0.000000  0.000000 -0.000000
 11C   1px        0.000050  0.000061  0.000014 -0.000003 -0.000044 -0.000041
 11C   1py       -0.000001 -0.000018 -0.000014 -0.000006 -0.000013  0.000007
 11C   2pz       -0.000000 -0.000000 -0.000000 -0.000000  0.000000 -0.000000
 11C   2px       -0.000237 -0.000009  0.000520  0.000202  0.000079 -0.001494
 11C   2py        0.000341  0.000144  0.000249  0.000049  0.000130 -0.000317
 11C   1dz2      -0.000050 -0.000029 -0.000007 -0.000025 -0.000002 -0.000077
 11C   1dxz       0.000000  0.000000  0.000000 -0.000000 -0.000000  0.000000
 11C   1dyz      -0.000000 -0.000000  0.000000 -0.000000 -0.000000 -0.000000
 11C   1dx2y2     0.000010  0.000003  0.000018  0.000012 -0.000047 -0.000030
 11C   1dxy       0.000005  0.000011  0.000004 -0.000009 -0.000039 -0.000040
 12C   1s         0.002497  0.002633 -0.004283 -0.004613 -0.271102 -0.040886
 12C   2s        -0.000257 -0.000122 -0.000129 -0.000075 -0.002034 -0.000115
 12C   3s         0.000945  0.000197  0.001412  0.000658  0.001607 -0.002697
 12C   1pz       -0.000000 -0.000000  0.000000  0.000000  0.000000  0.000000
 12C   1px        0.000050  0.000061 -0.000014  0.000003 -0.000044  0.000041
 12C   1py        0.000001  0.000018 -0.000014 -0.000006  0.000013  0.000007
 12C   2pz        0.000000  0.000000 -0.000000 -0.000000 -0.000000  0.000000
 12C   2px       -0.000237 -0.000009 -0.000520 -0.000202  0.000079  0.001494
 12C   2py       -0.000341 -0.000144  0.000249  0.000049 -0.000130 -0.000317
 12C   1dz2      -0.000050 -0.000029  0.000007  0.000025 -0.000002  0.000077
 12C   1dxz      -0.000000 -0.000000  0.000000 -0.000000  0.000000 -0.000000
 12C   1dyz      -0.000000 -0.000000 -0.000000  0.000000 -0.000000  0.000000
 12C   1dx2y2     0.000010  0.000003 -0.000018 -0.000012 -0.000047  0.000030
 12C   1dxy      -0.000005 -0.000011  0.000004 -0.000009  0.000039 -0.000040
 13C   1s         0.035594  0.036411 -0.041916 -0.043623 -0.253498 -0.096211
 13C   2s        -0.000147 -0.000003 -0.000117 -0.000241 -0.002050 -0.001177
 13C   3s         0.001111  0.001194 -0.001056 -0.000173  0.002724  0.005741
 13C   1pz        0.000000 -0.000000 -0.000000  0.000000 -0.000000 -0.000000
 13C   1px        0.000057 -0.000002 -0.000025 -0.000033  0.000032 -0.000050
 13C   1py       -0.000045 -0.000052  0.000020  0.000024  0.000053  0.000035
 13C   2pz       -0.000000 -0.000000  0.000000  0.000000 -0.000000  0.000000
 13C   2px       -0.001329 -0.000626 -0.000366 -0.000365 -0.000536  0.000039
 13C   2py        0.000219  0.000363 -0.001281 -0.000806  0.000483  0.002372
 13C   1dz2       0.000077  0.000096 -0.000152 -0.000179  0.000025 -0.000116
 13C   1dxz       0.000000  0.000000 -0.000000 -0.000000  0.000000 -0.000000
 13C   1dyz      -0.000000 -0.000000  0.000000 -0.000000  0.000000  0.000000
 13C   1dx2y2     0.000003 -0.000004  0.000041  0.000057  0.000013  0.000023
 13C   1dxy       0.000090  0.000102 -0.000089 -0.000081 -0.000036 -0.000014
 14H   1s        -0.000109  0.000053 -0.000014 -0.000003  0.000133  0.000030
 14H   2s         0.000097 -0.000034 -0.000100  0.000032 -0.000449  0.000326
 14H   1pz        0.000000 -0.000000  0.000000 -0.000000 -0.000000 -0.000000
 14H   1px       -0.000005 -0.000001  0.000007  0.000000  0.000079 -0.000049
 14H   1py       -0.000007 -0.000004 -0.000002 -0.000003 -0.000048  0.000012
 15H   1s        -0.000054 -0.000013  0.000162 -0.000132  0.000125 -0.000081
 15H   2s         0.000156 -0.000081  0.000291 -0.000244 -0.000317 -0.000353
 15H   1pz       -0.000000  0.000000 -0.000000  0.000000 -0.000000 -0.000000
 15H   1px       -0.000050  0.000027 -0.000016  0.000005 -0.000016  0.000008
 15H   1py       -0.000039  0.000028 -0.000009  0.000021 -0.000079 -0.000025
 16H   1s        -0.000054 -0.000013 -0.000162  0.000132  0.000125  0.000081
 16H   2s         0.000156 -0.000081 -0.000291  0.000244 -0.000317  0.000353
 16H   1pz        0.000000 -0.000000  0.000000  0.000000 -0.000000 -0.000000
 16H   1px       -0.000050  0.000027  0.000016 -0.000005 -0.000016 -0.000008
 16H   1py        0.000039 -0.000028 -0.000009  0.000021  0.000079 -0.000025
 17H   1s        -0.000109  0.000053  0.000014  0.000003  0.000133 -0.000030
 17H   2s         0.000097 -0.000034  0.000100 -0.000032 -0.000449 -0.000326
 17H   1pz       -0.000000  0.000000 -0.000000 -0.000000 -0.000000  0.000000
 17H   1px       -0.000005 -0.000001 -0.000007 -0.000000  0.000079  0.000049
 17H   1py        0.000007  0.000004 -0.000002 -0.000003  0.000048  0.000012
 18H   1s        -0.000000 -0.000000  0.000307  0.000000 -0.000258  0.000428
 18H   2s         0.000250  0.000000  0.000445  0.000000  0.000357 -0.000072
 18H   1pz       -0.000000 -0.000000 -0.000000 -0.000000 -0.000000  0.000000
 18H   1px        0.000000 -0.000077 -0.000000 -0.000003 -0.000000  0.000000
 18H   1py       -0.000060 -0.000000 -0.000041 -0.000000  0.000220 -0.000293
 19H   1s        -0.000000  0.000000 -0.000307 -0.000000 -0.000258 -0.000428
 19H   2s         0.000250  0.000000 -0.000445 -0.000000  0.000357  0.000072
 19H   1pz        0.000000  0.000000  0.000000 -0.000000  0.000000  0.000000
 19H   1px        0.000000 -0.000077 -0.000000  0.000003 -0.000000  0.000000
 19H   1py        0.000060  0.000000 -0.000041 -0.000000 -0.000220 -0.000293
 20H   1s        -0.000054  0.000013  0.000162  0.000132  0.000125 -0.000081
 20H   2s         0.000156  0.000081  0.000291  0.000244 -0.000317 -0.000353
 20H   1pz       -0.000000 -0.000000 -0.000000 -0.000000  0.000000 -0.000000
 20H   1px        0.000050  0.000027  0.000016  0.000005  0.000016 -0.000008
 20H   1py       -0.000039 -0.000028 -0.000009 -0.000021 -0.000079 -0.000025
 21H   1s        -0.000109 -0.000053 -0.000014  0.000003  0.000133  0.000030
 21H   2s         0.000097  0.000034 -0.000100 -0.000032 -0.000449  0.000326
 21H   1pz        0.000000  0.000000  0.000000  0.000000 -0.000000 -0.000000
 21H   1px        0.000005 -0.000001 -0.000007  0.000000 -0.000079  0.000049
 21H   1py       -0.000007  0.000004 -0.000002  0.000003 -0.000048  0.000012
 22H   1s        -0.000109 -0.000053  0.000014 -0.000003  0.000133 -0.000030
 22H   2s         0.000097  0.000034  0.000100  0.000032 -0.000449 -0.000326
 22H   1pz       -0.000000 -0.000000 -0.000000  0.000000 -0.000000  0.000000
 22H   1px        0.000005 -0.000001  0.000007 -0.000000 -0.000079 -0.000049
 22H   1py        0.000007 -0.000004 -0.000002  0.000003  0.000048  0.000012
 23H   1s        -0.000054  0.000013 -0.000162 -0.000132  0.000125  0.000081
 23H   2s         0.000156  0.000081 -0.000291 -0.000244 -0.000317  0.000353
 23H   1pz        0.000000  0.000000  0.000000 -0.000000 -0.000000 -0.000000
 23H   1px        0.000050  0.000027 -0.000016 -0.000005  0.000016  0.000008
 23H   1py        0.000039  0.000028 -0.000009 -0.000021  0.000079 -0.000025
                      6         7         8         9        10        11   
                 -11.24794 -11.24789 -11.24758 -11.24757 -11.24668 -11.24667
                   2.00000   2.00000   2.00000   2.00000   2.00000   2.00000
                  --------  --------  --------  --------  --------  --------
  0C   1s         0.377353 -0.263340  0.242457 -0.239450 -0.329238  0.328039
  0C   2s         0.002867 -0.001910  0.001891 -0.001853 -0.002959  0.002964
  0C   3s        -0.002835  0.001778 -0.001483  0.001333  0.004004 -0.004201
  0C   1pz       -0.000000  0.000000 -0.000000  0.000000  0.000000 -0.000000
  0C   1px       -0.000099  0.000087 -0.000061  0.000062  0.000029 -0.000038
  0C   1py       -0.000020  0.000027 -0.000064  0.000064 -0.000007  0.000005
  0C   2pz        0.000000  0.000000  0.000000  0.000000 -0.000000  0.000000
  0C   2px       -0.000064 -0.000013  0.000581 -0.000744  0.000888 -0.000925
  0C   2py       -0.000303  0.000110  0.000401 -0.000628  0.000191 -0.000266
  0C   1dz2       0.000008  0.000012 -0.000051  0.000053  0.000167 -0.000165
  0C   1dxz      -0.000000  0.000000  0.000000  0.000000  0.000000 -0.000000
  0C   1dyz       0.000000 -0.000000  0.000000 -0.000000 -0.000000 -0.000000
  0C   1dx2y2     0.000066 -0.000053 -0.000022  0.000019 -0.000116  0.000116
  0C   1dxy      -0.000066  0.000046  0.000010 -0.000009  0.000002 -0.000005
  1C   1s         0.327773 -0.207745  0.436270 -0.425453  0.377086 -0.376611
  1C   2s         0.002543 -0.001404  0.003847 -0.003741  0.003527 -0.003523
  1C   3s        -0.002591  0.000787 -0.005765  0.006009 -0.005379  0.005410
  1C   1pz       -0.000000  0.000000 -0.000000  0.000000 -0.000000  0.000000
  1C   1px        0.000096 -0.000072  0.000122 -0.000115  0.000043 -0.000038
  1C   1py        0.000070 -0.000036  0.000029 -0.000017  0.000020 -0.000010
  1C   2pz        0.000000 -0.000000  0.000000 -0.000000  0.000000 -0.000000
  1C   2px       -0.001055  0.000278 -0.000778  0.000492  0.000302 -0.000527
  1C   2py        0.000190  0.000212  0.000874 -0.000959  0.001114 -0.001188
  1C   1dz2      -0.000096  0.000139 -0.000121  0.000148 -0.000287  0.000291
  1C   1dxz      -0.000000  0.000000 -0.000000  0.000000 -0.000000  0.000000
  1C   1dyz       0.000000 -0.000000  0.000000 -0.000000  0.000000 -0.000000
  1C   1dx2y2    -0.000014  0.000010 -0.000039  0.000030 -0.000042  0.000037
  1C   1dxy       0.000046  0.000001  0.000007  0.000011  0.000029 -0.000021
  2C   1s        -0.026102  0.065345 -0.040527  0.053885 -0.025884  0.027862
  2C   2s        -0.000385  0.001085 -0.000386  0.000416 -0.000315  0.000323
  2C   3s         0.000509 -0.002549  0.001259  0.000351  0.001014 -0.000680
  2C   1pz       -0.000000  0.000000 -0.000000  0.000000 -0.000000  0.000000
  2C   1px        0.000089  0.000030  0.000066 -0.000009  0.000041 -0.000026
  2C   1py        0.000006  0.000033 -0.000007  0.000029 -0.000017  0.000032
  2C   2pz        0.000000  0.000000  0.000000 -0.000000  0.000000  0.000000
  2C   2px       -0.001238 -0.000782 -0.001875  0.002598 -0.000651  0.000744
  2C   2py       -0.000152 -0.000126  0.000883 -0.001308  0.000009  0.000115
  2C   1dz2       0.000061 -0.000166  0.000208 -0.000331  0.000131 -0.000154
  2C   1dxz      -0.000000  0.000000  0.000000  0.000000  0.000000 -0.000000
  2C   1dyz      -0.000000  0.000000 -0.000000 -0.000000 -0.000000  0.000000
  2C   1dx2y2    -0.000014  0.000053  0.000035 -0.000046 -0.000062  0.000078
  2C   1dxy       0.000009  0.000023  0.000070 -0.000027  0.000058 -0.000046
  3C   1s        -0.026091  0.065343  0.040527 -0.053885 -0.025884  0.027862
  3C   2s        -0.000385  0.001085  0.000386 -0.000416 -0.000315  0.000323
  3C   3s         0.000509 -0.002549 -0.001259 -0.000351  0.001014 -0.000680
  3C   1pz       -0.000000  0.000000 -0.000000 -0.000000 -0.000000  0.000000
  3C   1px        0.000090  0.000030 -0.000066  0.000009  0.000041 -0.000026
  3C   1py       -0.000006 -0.000033 -0.000007  0.000029  0.000017 -0.000032
  3C   2pz        0.000000 -0.000000 -0.000000  0.000000  0.000000 -0.000000
  3C   2px       -0.001239 -0.000782  0.001875 -0.002598 -0.000651  0.000744
  3C   2py        0.000152  0.000126  0.000883 -0.001308 -0.000009 -0.000115
  3C   1dz2       0.000061 -0.000166 -0.000208  0.000331  0.000131 -0.000154
  3C   1dxz      -0.000000 -0.000000 -0.000000  0.000000 -0.000000  0.000000
  3C   1dyz       0.000000  0.000000 -0.000000  0.000000 -0.000000  0.000000
  3C   1dx2y2    -0.000014  0.000053 -0.000035  0.000046 -0.000062  0.000078
  3C   1dxy      -0.000009 -0.000023  0.000070 -0.000027 -0.000058  0.000046
  4C   1s         0.327791 -0.207750 -0.436269  0.425452  0.377086 -0.376611
  4C   2s         0.002544 -0.001404 -0.003847  0.003741  0.003527 -0.003523
  4C   3s        -0.002592  0.000787  0.005765 -0.006009 -0.005379  0.005410
  4C   1pz        0.000000 -0.000000 -0.000000  0.000000  0.000000 -0.000000
  4C   1px        0.000096 -0.000072 -0.000122  0.000115  0.000043 -0.000038
  4C   1py       -0.000070  0.000036  0.000029 -0.000017 -0.000020  0.000010
  4C   2pz       -0.000000  0.000000  0.000000 -0.000000 -0.000000  0.000000
  4C   2px       -0.001055  0.000278  0.000778 -0.000492  0.000302 -0.000527
  4C   2py       -0.000190 -0.000212  0.000874 -0.000959 -0.001114  0.001188
  4C   1dz2      -0.000096  0.000139  0.000121 -0.000148 -0.000287  0.000291
  4C   1dxz      -0.000000  0.000000 -0.000000  0.000000 -0.000000  0.000000
  4C   1dyz      -0.000000  0.000000  0.000000  0.000000 -0.000000  0.000000
  4C   1dx2y2    -0.000014  0.000010  0.000039 -0.000030 -0.000042  0.000037
  4C   1dxy      -0.000046 -0.000001  0.000007  0.000011 -0.000029  0.000021
  5C   1s         0.377361 -0.263342 -0.242456  0.239448 -0.329239  0.328041
  5C   2s         0.002867 -0.001910 -0.001891  0.001853 -0.002959  0.002964
  5C   3s        -0.002834  0.001778  0.001483 -0.001333  0.004004 -0.004201
  5C   1pz       -0.000000  0.000000  0.000000 -0.000000  0.000000 -0.000000
  5C   1px       -0.000099  0.000087  0.000061 -0.000062  0.000029 -0.000038
  5C   1py        0.000020 -0.000027 -0.000064  0.000064  0.000007 -0.000005
  5C   2pz        0.000000 -0.000000  0.000000 -0.000000 -0.000000  0.000000
  5C   2px       -0.000064 -0.000013 -0.000581  0.000744  0.000888 -0.000925
  5C   2py        0.000303 -0.000110  0.000401 -0.000628 -0.000191  0.000266
  5C   1dz2       0.000008  0.000012  0.000051 -0.000053  0.000167 -0.000165
  5C   1dxz       0.000000 -0.000000  0.000000 -0.000000  0.000000 -0.000000
  5C   1dyz      -0.000000  0.000000  0.000000 -0.000000  0.000000 -0.000000
  5C   1dx2y2     0.000066 -0.000053  0.000022 -0.000019 -0.000116  0.000116
  5C   1dxy       0.000066 -0.000046  0.000010 -0.000009 -0.000002  0.000005
  6C   1s         0.000081 -0.517420  0.000016 -0.136992  0.000018 -0.024499
  6C   2s         0.000001 -0.004423  0.000000 -0.000898  0.000000 -0.000065
  6C   3s        -0.000002  0.006135  0.000000 -0.001837  0.000001 -0.000958
  6C   1pz        0.000000  0.000000  0.000000  0.000000  0.000000  0.000000
  6C   1px        0.000017  0.000000 -0.000036 -0.000000 -0.000024 -0.000000
  6C   1py        0.000000 -0.000039 -0.000000  0.000032 -0.000000  0.000017
  6C   2pz       -0.000000 -0.000000 -0.000000  0.000000 -0.000000 -0.000000
  6C   2px       -0.001281 -0.000000 -0.000246 -0.000000 -0.000173 -0.000000
  6C   2py        0.000000 -0.001210 -0.000000  0.001561 -0.000000  0.000345
  6C   1dz2      -0.000000  0.000344 -0.000000  0.000260 -0.000000  0.000124
  6C   1dxz      -0.000000 -0.000000  0.000000  0.000000 -0.000000  0.000000
  6C   1dyz       0.000000  0.000000 -0.000000 -0.000000 -0.000000 -0.000000
  6C   1dx2y2    -0.000000  0.000023  0.000000 -0.000001 -0.000000  0.000013
  6C   1dxy       0.000038  0.000000  0.000028  0.000000  0.000027  0.000000
  7C   1s         0.026086  0.065345  0.040515  0.053895  0.025842  0.027900
  7C   2s         0.000385  0.001085  0.000386  0.000416  0.000315  0.000323
  7C   3s        -0.000509 -0.002549 -0.001259  0.000351 -0.001013 -0.000681
  7C   1pz        0.000000  0.000000  0.000000  0.000000  0.000000  0.000000
  7C   1px        0.000090 -0.000030  0.000066  0.000009  0.000041  0.000026
  7C   1py       -0.000006  0.000033  0.000007  0.000029  0.000017  0.000032
  7C   2pz        0.000000  0.000000 -0.000000  0.000000 -0.000000  0.000000
  7C   2px       -0.001239  0.000782 -0.001875 -0.002599 -0.000650 -0.000744
  7C   2py        0.000152 -0.000126 -0.000882 -0.001308 -0.000009  0.000115
  7C   1dz2      -0.000061 -0.000166 -0.000208 -0.000331 -0.000131 -0.000154
  7C   1dxz       0.000000 -0.000000  0.000000 -0.000000  0.000000  0.000000
  7C   1dyz       0.000000  0.000000 -0.000000 -0.000000  0.000000  0.000000
  7C   1dx2y2     0.000014  0.000053 -0.000035 -0.000046  0.000062  0.000078
  7C   1dxy       0.000009 -0.000023  0.000070  0.000027  0.000058  0.000046
  8C   1s        -0.000034 -0.517398 -0.000016  0.136990  0.000018 -0.024499
  8C   2s        -0.000000 -0.004423 -0.000000  0.000898  0.000000 -0.000065
  8C   3s         0.000001  0.006134 -0.000000  0.001837  0.000001 -0.000958
  8C   1pz       -0.000000 -0.000000  0.000000  0.000000 -0.000000 -0.000000
  8C   1px        0.000017  0.000000  0.000036  0.000000 -0.000024 -0.000000
  8C   1py        0.000000  0.000039 -0.000000  0.000032  0.000000 -0.000017
  8C   2pz       -0.000000  0.000000 -0.000000 -0.000000  0.000000  0.000000
  8C   2px       -0.001281 -0.000000  0.000246  0.000000 -0.000173 -0.000000
  8C   2py        0.000000  0.001210 -0.000000  0.001561  0.000000 -0.000345
  8C   1dz2       0.000000  0.000344  0.000000 -0.000260 -0.000000  0.000124
  8C   1dxz      -0.000000 -0.000000  0.000000  0.000000 -0.000000 -0.000000
  8C   1dyz      -0.000000  0.000000  0.000000  0.000000 -0.000000 -0.000000
  8C   1dx2y2     0.000000  0.000023 -0.000000  0.000001 -0.000000  0.000013
  8C   1dxy      -0.000038 -0.000000  0.000028  0.000000 -0.000027 -0.000000
  9C   1s         0.026098  0.065344 -0.040515 -0.053894  0.025843  0.027900
  9C   2s         0.000385  0.001085 -0.000386 -0.000416  0.000315  0.000323
  9C   3s        -0.000509 -0.002549  0.001259 -0.000351 -0.001013 -0.000681
  9C   1pz        0.000000  0.000000  0.000000  0.000000  0.000000  0.000000
  9C   1px        0.000090 -0.000030 -0.000066 -0.000009  0.000041  0.000026
  9C   1py        0.000006 -0.000033  0.000007  0.000029 -0.000017 -0.000032
  9C   2pz       -0.000000 -0.000000  0.000000  0.000000 -0.000000 -0.000000
  9C   2px       -0.001238  0.000782  0.001875  0.002599 -0.000650 -0.000744
  9C   2py       -0.000152  0.000126 -0.000882 -0.001308  0.000009 -0.000115
  9C   1dz2      -0.000061 -0.000166  0.000208  0.000331 -0.000131 -0.000154
  9C   1dxz      -0.000000  0.000000 -0.000000 -0.000000 -0.000000 -0.000000
  9C   1dyz      -0.000000  0.000000  0.000000  0.000000  0.000000  0.000000
  9C   1dx2y2     0.000014  0.000053  0.000035  0.000046  0.000062  0.000078
  9C   1dxy      -0.000009  0.000023  0.000070  0.000027 -0.000058 -0.000046
 10C   1s        -0.327792 -0.207756 -0.436175 -0.425554 -0.376528 -0.377168
 10C   2s        -0.002544 -0.001404 -0.003846 -0.003742 -0.003522 -0.003528
 10C   3s         0.002592  0.000787  0.005764  0.006011  0.005370  0.005418
 10C   1pz       -0.000000  0.000000 -0.000000  0.000000 -0.000000 -0.000000
 10C   1px        0.000096  0.000072  0.000122  0.000115  0.000043  0.000038
 10C   1py       -0.000070 -0.000036 -0.000029 -0.000017 -0.000020 -0.000010
 10C   2pz       -0.000000 -0.000000 -0.000000 -0.000000  0.000000  0.000000
 10C   2px       -0.001055 -0.000278 -0.000778 -0.000492  0.000301  0.000527
 10C   2py       -0.000190  0.000212 -0.000874 -0.000959 -0.001112 -0.001190
 10C   1dz2       0.000096  0.000139  0.000121  0.000148  0.000286  0.000292
 10C   1dxz      -0.000000 -0.000000 -0.000000 -0.000000 -0.000000 -0.000000
 10C   1dyz       0.000000  0.000000  0.000000  0.000000  0.000000  0.000000
 10C   1dx2y2     0.000014  0.000010  0.000039  0.000030  0.000042  0.000037
 10C   1dxy       0.000046 -0.000001  0.000007 -0.000011  0.000029  0.000021
 11C   1s        -0.377362 -0.263354 -0.242406 -0.239508  0.328750  0.328524
 11C   2s        -0.002868 -0.001910 -0.001891 -0.001853  0.002955  0.002968
 11C   3s         0.002834  0.001778  0.001483  0.001333 -0.003998 -0.004206
 11C   1pz       -0.000000 -0.000000  0.000000  0.000000  0.000000  0.000000
[...]
  6C   1dz2       0.000000 -0.000000  0.243481 -0.155412 -0.000000  0.086759
  6C   1dxz      -0.000000  0.000000  0.000000  0.000000 -0.000000 -0.000000
  6C   1dyz       0.000000 -0.000000 -0.000000  0.000000  0.000000 -0.000000
  6C   1dx2y2    -0.000000 -0.000000  0.907342 -1.225600 -0.000001  0.775005
  6C   1dxy      -0.755627  0.622082  0.000000  0.000000 -0.427160 -0.000000
  7C   1s        -0.146684  0.119023 -0.062262  0.268218  0.095321  0.015914
  7C   2s        -0.528357  0.515000 -0.189468  1.037018  0.371102  0.069807
  7C   3s         2.419006 -0.805621  0.714012 -2.855032 -1.172290  0.273380
  7C   1pz        0.000000  0.000000  0.000000  0.000000  0.000000 -0.000000
  7C   1px        0.152766 -0.349020  0.135794 -0.213457  0.249522  0.233877
  7C   1py       -0.661558 -0.131112 -0.347864 -0.080958 -0.119801  0.038427
  7C   2pz        0.000000 -0.000000  0.000000 -0.000000 -0.000000 -0.000000
  7C   2px        1.507709  0.009542 -0.100814  0.516270 -0.583133 -2.502821
  7C   2py        2.181391 -0.253543  0.211837  0.623699  0.305262  0.148406
  7C   1dz2      -0.107714 -0.048084 -0.134349  0.083094  0.021983  0.004933
  7C   1dxz       0.000000 -0.000000  0.000000  0.000000 -0.000000 -0.000000
  7C   1dyz      -0.000000 -0.000000 -0.000000 -0.000000  0.000000  0.000000
  7C   1dx2y2    -0.715350  0.432221  0.537526 -0.791996 -0.502558  0.011719
  7C   1dxy       0.166885 -0.230017  0.079606 -0.588492  0.628974  0.966445
  8C   1s        -0.000000  0.000000 -0.132983 -0.039419  0.000000 -0.303570
  8C   2s        -0.000000  0.000000 -0.660825 -0.246099  0.000001 -1.168057
  8C   3s         0.000001 -0.000001 -0.497626 -1.409085 -0.000004  4.270733
  8C   1pz       -0.000000 -0.000000 -0.000000 -0.000000 -0.000000 -0.000000
  8C   1px       -0.405281 -0.426007 -0.000000  0.000000 -0.659378 -0.000001
  8C   1py       -0.000000 -0.000000  0.317001  0.284346  0.000001 -0.527873
  8C   2pz        0.000000  0.000000  0.000000 -0.000000  0.000000  0.000000
  8C   2px        1.516153  0.501251  0.000000 -0.000000  0.168833  0.000000
  8C   2py        0.000001 -0.000000 -0.187760 -0.741823 -0.000001  1.409453
  8C   1dz2      -0.000000 -0.000000  0.243481  0.155412  0.000000 -0.086759
  8C   1dxz       0.000000 -0.000000  0.000000  0.000000 -0.000000 -0.000000
  8C   1dyz      -0.000000 -0.000000  0.000000 -0.000000 -0.000000 -0.000000
  8C   1dx2y2    -0.000000 -0.000000  0.907342  1.225600  0.000001 -0.775005
  8C   1dxy      -0.755628 -0.622082 -0.000000 -0.000000 -0.427160 -0.000000
  9C   1s         0.146684  0.119023 -0.062262 -0.268218 -0.095321 -0.015914
  9C   2s         0.528357  0.515000 -0.189468 -1.037018 -0.371102 -0.069807
  9C   3s        -2.419005 -0.805619  0.714012  2.855032  1.172290 -0.273381
  9C   1pz        0.000000 -0.000000 -0.000000  0.000000  0.000000 -0.000000
  9C   1px       -0.152766 -0.349020  0.135794  0.213457 -0.249522 -0.233877
  9C   1py       -0.661558  0.131112  0.347864 -0.080958 -0.119801  0.038427
  9C   2pz       -0.000000  0.000000 -0.000000 -0.000000 -0.000000  0.000000
  9C   2px       -1.507709  0.009542 -0.100813 -0.516271  0.583133  2.502821
  9C   2py        2.181390  0.253543 -0.211837  0.623699  0.305262  0.148406
  9C   1dz2       0.107714 -0.048084 -0.134349 -0.083094 -0.021983 -0.004933
  9C   1dxz       0.000000  0.000000  0.000000  0.000000 -0.000000 -0.000000
  9C   1dyz       0.000000 -0.000000 -0.000000 -0.000000  0.000000  0.000000
  9C   1dx2y2     0.715350  0.432221  0.537526  0.791996  0.502558 -0.011719
  9C   1dxy       0.166885  0.230017 -0.079606 -0.588492  0.628974  0.966445
 10C   1s         0.141748 -0.064844 -0.086290  0.084650 -0.085020 -0.178854
 10C   2s         0.459346 -0.345391 -0.437282  0.422611 -0.273513 -0.657940
 10C   3s        -3.602717  0.024082 -0.262528  0.404611  1.568941  2.825195
 10C   1pz       -0.000000  0.000000  0.000000 -0.000000 -0.000000  0.000000
 10C   1px       -0.124136  0.025562  0.246085 -0.546325 -0.121113  0.125797
 10C   1py       -0.021818 -0.451069 -0.241816 -0.051904  0.344074  0.427889
 10C   2pz        0.000000 -0.000000 -0.000000  0.000000  0.000000 -0.000000
 10C   2px        1.116574 -0.228081 -0.030601  0.215230  0.243822 -0.021339
 10C   2py        1.262113 -0.065830  0.080441 -0.342205 -0.575414 -1.026995
 10C   1dz2       0.187170  0.197115  0.172973 -0.120300 -0.136297 -0.123925
 10C   1dxz      -0.000000  0.000000 -0.000000  0.000000 -0.000000 -0.000000
 10C   1dyz       0.000000  0.000000  0.000000  0.000000 -0.000000 -0.000000
 10C   1dx2y2    -0.124985  0.825749  0.627592 -0.386347 -1.008970 -0.911532
 10C   1dxy       0.562859 -0.091072 -0.258142  0.297297  0.019950 -0.171505
 11C   1s        -0.001233 -0.004589 -0.041570  0.092776  0.117808  0.091700
 11C   2s         0.142965  0.032414 -0.129549  0.303472  0.389487  0.287900
 11C   3s         2.699677  0.317140  0.329488 -1.334678 -1.773281 -2.031340
 11C   1pz        0.000000  0.000000  0.000000 -0.000000 -0.000000  0.000000
 11C   1px       -0.050257  0.380428  0.358923 -0.333506 -0.376731 -0.246692
 11C   1py        0.485860 -0.155758 -0.121072 -0.031314 -0.170894 -0.208659
 11C   2pz       -0.000000 -0.000000 -0.000000 -0.000000  0.000000  0.000000
 11C   2px       -0.712588 -0.076980 -0.122997  0.397816  0.571074  0.694401
 11C   2py       -1.467401  0.207782  0.097000  0.270573  0.162970  0.300502
 11C   1dz2      -0.270110 -0.111093 -0.086657  0.145832  0.178608  0.161551
 11C   1dxz       0.000000  0.000000  0.000000 -0.000000 -0.000000 -0.000000
 11C   1dyz       0.000000  0.000000  0.000000 -0.000000 -0.000000 -0.000000
 11C   1dx2y2     0.396940  0.324050  0.203898 -0.182401 -0.546918 -0.524174
 11C   1dxy       0.198527  0.273808  0.232198 -0.547168 -0.940239 -0.798322
 12C   1s         0.001233 -0.004589 -0.041570 -0.092776 -0.117808 -0.091700
 12C   2s        -0.142964  0.032414 -0.129549 -0.303472 -0.389487 -0.287900
 12C   3s        -2.699677  0.317141  0.329489  1.334678  1.773281  2.031340
 12C   1pz        0.000000  0.000000  0.000000  0.000000  0.000000  0.000000
 12C   1px        0.050257  0.380428  0.358923  0.333506  0.376731  0.246692
 12C   1py        0.485860  0.155758  0.121072 -0.031314 -0.170894 -0.208659
 12C   2pz        0.000000  0.000000 -0.000000 -0.000000 -0.000000 -0.000000
 12C   2px        0.712588 -0.076981 -0.122997 -0.397816 -0.571074 -0.694401
 12C   2py       -1.467400 -0.207782 -0.097000  0.270573  0.162970  0.300502
 12C   1dz2       0.270110 -0.111093 -0.086657 -0.145832 -0.178608 -0.161551
 12C   1dxz      -0.000000  0.000000  0.000000  0.000000  0.000000  0.000000
 12C   1dyz       0.000000 -0.000000 -0.000000 -0.000000 -0.000000 -0.000000
 12C   1dx2y2    -0.396940  0.324050  0.203898  0.182401  0.546918  0.524174
 12C   1dxy       0.198527 -0.273808 -0.232198 -0.547168 -0.940239 -0.798322
 13C   1s        -0.141748 -0.064844 -0.086290 -0.084650  0.085020  0.178854
 13C   2s        -0.459346 -0.345391 -0.437282 -0.422611  0.273512  0.657940
 13C   3s         3.602717  0.024081 -0.262529 -0.404611 -1.568941 -2.825195
 13C   1pz       -0.000000 -0.000000 -0.000000 -0.000000 -0.000000  0.000000
 13C   1px        0.124136  0.025563  0.246085  0.546325  0.121113 -0.125797
 13C   1py       -0.021818  0.451069  0.241816 -0.051904  0.344074  0.427889
 13C   2pz       -0.000000 -0.000000  0.000000  0.000000 -0.000000 -0.000000
 13C   2px       -1.116574 -0.228081 -0.030601 -0.215230 -0.243822  0.021339
 13C   2py        1.262113  0.065830 -0.080441 -0.342206 -0.575414 -1.026995
 13C   1dz2      -0.187170  0.197115  0.172974  0.120300  0.136297  0.123925
 13C   1dxz      -0.000000  0.000000  0.000000  0.000000  0.000000  0.000000
 13C   1dyz      -0.000000  0.000000  0.000000  0.000000  0.000000  0.000000
 13C   1dx2y2     0.124985  0.825749  0.627592  0.386347  1.008970  0.911531
 13C   1dxy       0.562859  0.091072  0.258142  0.297297  0.019950 -0.171505
 14H   1s         0.717119  0.650844 -0.485632  0.761057 -1.299831  1.127439
 14H   2s        -0.509225 -0.216318  0.161889 -0.379562  0.645342 -0.614100
 14H   1pz       -0.000000 -0.000000  0.000000 -0.000000  0.000000 -0.000000
 14H   1px        0.286685  0.164528 -0.139187  0.277778 -0.417925  0.364312
 14H   1py       -0.278435 -0.229021  0.156423 -0.111560  0.226736 -0.215571
 15H   1s        -0.064381 -1.245477  0.956216 -0.491870  1.141648 -1.032478
 15H   2s         0.210740  0.424827 -0.408605  0.318607 -0.577169  0.606322
 15H   1pz        0.000000  0.000000 -0.000000  0.000000 -0.000000  0.000000
 15H   1px       -0.307958  0.048860 -0.087035  0.055451 -0.004661 -0.051712
 15H   1py        0.057487  0.528480 -0.393236  0.210447 -0.433881  0.396629
 16H   1s         0.064381 -1.245477  0.956216  0.491870 -1.141648  1.032478
 16H   2s        -0.210740  0.424827 -0.408605 -0.318607  0.577169 -0.606322
 16H   1pz        0.000000  0.000000 -0.000000 -0.000000  0.000000 -0.000000
 16H   1px        0.307958  0.048860 -0.087035 -0.055451  0.004661  0.051712
 16H   1py        0.057487 -0.528480  0.393236  0.210447 -0.433881  0.396629
 17H   1s        -0.717119  0.650844 -0.485632 -0.761057  1.299831 -1.127439
 17H   2s         0.509225 -0.216318  0.161889  0.379562 -0.645342  0.614100
 17H   1pz        0.000000 -0.000000  0.000000  0.000000 -0.000000  0.000000
 17H   1px       -0.286685  0.164528 -0.139187 -0.277778  0.417925 -0.364312
 17H   1py       -0.278435  0.229021 -0.156423 -0.111560  0.226736 -0.215571
 18H   1s         0.000000 -0.000001  1.339175 -1.384035 -0.000001  0.864025
 18H   2s        -0.000000  0.000000 -0.550937  0.730466  0.000001 -0.561325
 18H   1pz       -0.000000  0.000000  0.000000 -0.000000 -0.000000 -0.000000
 18H   1px        0.382552 -0.269112 -0.000000  0.000000  0.090532  0.000000
 18H   1py       -0.000000  0.000000 -0.575994  0.568877  0.000000 -0.337660
 19H   1s        -0.000000 -0.000000  1.339175  1.384035  0.000001 -0.864025
 19H   2s         0.000000  0.000000 -0.550937 -0.730466 -0.000001  0.561325
 19H   1pz       -0.000000 -0.000000 -0.000000 -0.000000 -0.000000  0.000000
 19H   1px       -0.382552 -0.269111 -0.000000  0.000000 -0.090532 -0.000000
 19H   1py       -0.000000 -0.000000  0.575994  0.568877  0.000000 -0.337660
 20H   1s         0.064381  1.245476  0.956217 -0.491870 -1.141646 -1.032480
 20H   2s        -0.210740 -0.424827 -0.408605  0.318607  0.577168  0.606323
 20H   1pz       -0.000000  0.000000  0.000000 -0.000000 -0.000000 -0.000000
 20H   1px       -0.307958  0.048859  0.087035 -0.055451 -0.004661  0.051712
 20H   1py       -0.057487 -0.528480 -0.393237  0.210447  0.433880  0.396630
 21H   1s        -0.717120 -0.650844 -0.485633  0.761056  1.299829  1.127441
 21H   2s         0.509225  0.216318  0.161889 -0.379562 -0.645341 -0.614101
 21H   1pz        0.000000  0.000000  0.000000 -0.000000 -0.000000 -0.000000
 21H   1px        0.286685  0.164528  0.139187 -0.277778 -0.417924 -0.364313
 21H   1py        0.278435  0.229021  0.156423 -0.111560 -0.226735 -0.215571
 22H   1s         0.717119 -0.650844 -0.485633 -0.761056 -1.299829 -1.127441
 22H   2s        -0.509225  0.216318  0.161889  0.379562  0.645341  0.614101
 22H   1pz       -0.000000  0.000000  0.000000  0.000000  0.000000 -0.000000
 22H   1px       -0.286685  0.164528  0.139187  0.277778  0.417924  0.364313
 22H   1py        0.278435 -0.229021 -0.156423 -0.111560 -0.226735 -0.215571
 23H   1s        -0.064381  1.245476  0.956217  0.491870  1.141646  1.032480
 23H   2s         0.210740 -0.424827 -0.408605 -0.318607 -0.577168 -0.606323
 23H   1pz       -0.000000 -0.000000 -0.000000 -0.000000 -0.000000 -0.000000
 23H   1px        0.307958  0.048859  0.087035  0.055451  0.004661 -0.051712
 23H   1py       -0.057487  0.528480  0.393237  0.210447  0.433880  0.396630


-------
TIMINGS
-------

Total SCF time: 0 days 0 hours 0 min 28 sec 

Total time                  ....      28.031 sec
Sum of individual times     ....      28.024 sec  (100.0%)

SCF preparation             ....       0.086 sec  (  0.3%)
Fock matrix formation       ....      27.647 sec  ( 98.6%)
  Startup                   ....       0.018 sec  (  0.1% of F)
  Coulomb+Exchange Fock     ....      27.606 sec  ( 99.9% of F)
Diagonalization             ....       0.000 sec  (  0.0%)
Density matrix formation    ....       0.044 sec  (  0.2%)
Total Energy calculation    ....       0.035 sec  (  0.1%)
Population analysis         ....       0.000 sec  (  0.0%)
Orbital Transformation      ....       0.020 sec  (  0.1%)
Orbital Orthonormalization  ....       0.000 sec  (  0.0%)
DIIS solution               ....       0.138 sec  (  0.5%)
SOSCF solution              ....       0.054 sec  (  0.2%)
Finished LeanSCF after  28.1 sec

Maximum memory used throughout the entire LEANSCF-calculation: 22.0 MB

-------------------------   --------------------
FINAL SINGLE POINT ENERGY      -536.031700285482
-------------------------   --------------------



           ************************************************************
           *        Program running with 8 parallel MPI-processes     *
           *              working on a common directory               *
           ************************************************************

------------------------------------------------------------------------------
                              ORCA PROPERTY CALCULATIONS
------------------------------------------------------------------------------

GBWName                                 ... orca.gbw
Number of atoms                         ...     24
Number of basis functions               ...    344
Max core memory                         ...   1024 MB

Electric properties:
Dipole moment                           ... YES
Quadrupole moment                       ...  NO
Static polarizability (Dipole/Dipole)   ...  NO
Static polarizability (Dipole/Quad.)    ...  NO
Static polarizability (Quad./Quad.)     ...  NO
Static polarizability (Velocity)        ...  NO

Atomic electric properties:
Dipole moment                           ...  NO
Quadrupole moment                       ...  NO
Static polarizability                   ...  NO

Choice of electric origin               ... Center of mass
Position of electric origin             ...    -0.000000    -0.000000    -0.000000

General magnetic properties:
Magnetizability                         ...  NO

EPR properties:
g-Tensor (aka g-matrix)                 ...  NO
Zero-Field splitting spin-orbit         ...  NO
Zero-field splitting spin-spin          ...  NO
Hyperfine couplings                     ...  NO (   0 nuclei)
Quadrupole couplings                    ...  NO (   0 nuclei)
Contact density                         ...  NO (   0 nuclei)

NMR properties:
Chemical shifts                         ...  NO (   0 nuclei)
Spin-rotation constants                 ...  NO (   0 nuclei)
Spin-spin couplings                     ...  NO (   0 nuclei,    0 pairs)

Choice of magnetic origin               ... GIAO
Position of magnetic origin             ...     0.000000     0.000000     0.000000

Properties with geometric perturbations:
SCF Hessian                             ...  NO
IR spectrum                             ...  NO
VCD spectrum                            ...  NO
X-ray spectroscopy properties:
SCF XES/XAS/RIXS spectra                ...  NO


-------------
DIPOLE MOMENT
-------------

Method             : SCF
Type of density    : Electron Density
Multiplicity       :   1
Irrep              :   0
Energy             :  -536.0317002854816337 Eh
Relativity type    : 
Basis              : AO
                                X                 Y                 Z
Electronic contribution:     -0.000000023      -0.000000038      -0.000000536
Nuclear contribution   :      0.000000070       0.000000041       0.000000654
                        -----------------------------------------
Total Dipole Moment    :      0.000000047       0.000000003       0.000000118
                        -----------------------------------------
Magnitude (a.u.)       :      0.000000127
Magnitude (Debye)      :      0.000000323



--------------------
Rotational spectrum 
--------------------
 
Rotational constants in cm-1:             0.070601             0.014886             0.012294 
Rotational constants in MHz :          2116.569767           446.264446           368.556744 

Dipole components along the rotational axes: 
x,y,z [a.u.] :    -0.000000     0.000000     0.000000 
x,y,z [Debye]:    -0.000000     0.000000     0.000000 

 

Dipole moment calculation done in   0.0 sec 

Maximum memory used throughout the entire PROP-calculation: 17.2 MB

--------------------------------
SUGGESTED CITATIONS FOR THIS RUN
--------------------------------

Below you find a list of papers that are relevant to this ORCA run
We neither can nor want to force you to cite these papers, but we appreciate if you do
You receive ORCA, which is the product of decades of hard work by many enthusiastic individuals, for free
The only thing we kindly ask in return is that you cite our papers,
We deeply appreciate it, if you show your appreciation for ORCA by not just citing the generic ORCA reference.

Please note that relegating all ORCA citations to the supporting information does *not* help us.
SI sections are not indexed - citations you put there will not count into any citation statistics
But we need these citations in order to attract the funding resources that allow us to do what we are doing

Therefore, if you are a happy ORCA user, please consider citing a few of the papers listed below in the main body of your paper

In addition to the list printed below, the program has created the file orca.bibtex that contains the list in bibtex format
You can import this file easily into all common literature databanks and citation aid programs


List of essential papers. We consider these as the minimum necessary citations

  1. Neese,F.
     Software update: the ORCA program system, version 5.0
     WIRES Comput. Molec. Sci., 2022 12(1)e1606
     doi.org/10.1002/wcms.1606

List of papers to cite with high priority. The work reported in these papers was absolutely
necessary for this run to complete.
Our perspective: the developers of density functionals and basis sets usually get cited in chemistry papers
Good! But without the algorithms to do something with them, the functionals or basis sets would not do anything.
Hence, in our opinion, the algorithm design and method developments papers are equally worthy of getting cited

  1. Neese,F.
     The SHARK Integral Generation and Digestion System
     J. Comp. Chem., 2022  1-16
     doi.org/10.1002/jcc.26942

List of suggested additional citations. These are papers that are important in the 'surrounding' of 
of this run, or papers that preceded the highly important papers. If you like your results we are grateful for a citation.

  1. Neese,F.
     The ORCA program system
     WIRES Comput. Molec. Sci., 2012 2(1)73-78
     doi.org/10.1002/wcms.81
  2. Neese,F.
     Software update: the ORCA program system, version 4.0
     WIRES Comput. Molec. Sci., 2018 8(1)1-6
     doi.org/10.1002/wcms.1327
  3. Neese,F.; Wennmohs,F.; Becker,U.; Riplinger,C.
     The ORCA quantum chemistry program package
     J. Chem. Phys., 2020 152 Art. No. L224108
     doi.org/10.1063/5.0004608

List of optional additional citations

  1. Neese,F.
     Approximate second-order SCF convergence for spin unrestricted wavefunctions
     Chem. Phys. Lett., 2000 325(1-3)93-98
     doi.org/10.1016/s0009-2614(00)00662-x

Timings for individual modules:

Sum of individual times          ...       33.215 sec (=   0.554 min)
Startup calculation              ...        4.150 sec (=   0.069 min)  12.5 %
SCF iterations                   ...       28.726 sec (=   0.479 min)  86.5 %
Property calculations            ...        0.339 sec (=   0.006 min)   1.0 %
                             ****ORCA TERMINATED NORMALLY****
TOTAL RUN TIME: 0 days 0 hours 0 minutes 33 seconds 524 msec
