
                                 *****************
                                 * O   R   C   A *
                                 *****************

                                            #,                                       
                                            ###                                      
                                            ####                                     
                                            #####                                    
                                            ######                                   
                                           ########,                                 
                                     ,,################,,,,,                         
                               ,,#################################,,                 
                          ,,##########################################,,             
                       ,#########################################, ''#####,          
                    ,#############################################,,   '####,        
                  ,##################################################,,,,####,       
                ,###########''''           ''''###############################       
              ,#####''   ,,,,##########,,,,          '''####'''          '####       
            ,##' ,,,,###########################,,,                        '##       
           ' ,,###''''                  '''############,,,                           
         ,,##''                                '''############,,,,        ,,,,,,###''
      ,#''                                            '''#######################'''  
     '                                                          ''''####''''         
             ,#######,   #######,   ,#######,      ##                                
            ,#'     '#,  ##    ##  ,#'     '#,    #''#        ,####,    ,#,          
            ##       ##  ##   ,#'  ##            #'  '#       #'       ,# #          
            ##       ##  #######   ##           ,######,      #####,      #          
            '#,     ,#'  ##    ##  '#,     ,#' ,#      #,     #,   #      #          
             '#######'   ##     ##  '#######'  #'      '#     '####' #    #          



                #########################################################
                #                        -***-                          #
                #          Department of theory and spectroscopy        #
                #                                                       #
                #                      Frank Neese                      #
                #                                                       #
                #     Directorship, Architecture, Infrastructure        #
                #                    SHARK, DRIVERS                     #
                #        Core code/Algorithms in most modules           #
                #                                                       #
                #        Max Planck Institute fuer Kohlenforschung      #
                #                Kaiser Wilhelm Platz 1                 #
                #                 D-45470 Muelheim/Ruhr                 #
                #                      Germany                          #
                #                                                       #
                #                  All rights reserved                  #
                #                        -***-                          #
                #########################################################


                         Program Version 6.1.1  -  RELEASE   -
                                (GIT: $487d211cc3$)
                          ($2025-11-21 10:33:24 +0100$)


 With contributions from (in alphabetic order):
[Max-Planck-Institut fuer Kohlenforschung]                               
  Daniel Aravena         : Magnetic Suceptibility                        
  Michael Atanasov       : Ab Initio Ligand Field Theory (pilot matlab implementation)
  Alexander A. Auer      : GIAO ZORA, VPT2 properties, NMR spectrum      
  Ute Becker             : All parallelization in ORCA, NUMFREQ, NUMCALC 
  Giovanni Bistoni       : ED, misc. LED, open-shell LED, HFLD           
  Dmytro Bykov           : pre 5.0 version of the SCF Hessian            
  Marcos Casanova-Páez   : Triplet and SCS-CIS(D). UHF-(DLPNO)-IP/EA/STEOM-CCSD. UHF-CVS-IP/STEOM-CCSD   
  Vijay G. Chilkuri      : MRCI spin determinant printing, contributions to CSF-ICE 
  Pauline Colinet        : FMM embedding                                 
  Dipayan Datta          : RHF DLPNO-CCSD density                        
  Achintya Kumar Dutta   : EOM-CC, STEOM-CC                              
  Nicolas Foglia         : Exact transition moments, OPA infrastructure, MCD improvements    
  Dmitry Ganyushin       : Spin-Orbit,Spin-Spin,Magnetic field MRCI      
  Miquel Garcia-Rates    : C-PCM and meta-GGA Hessian, CCSD/C-PCM, Gaussian charge scheme 
  Tiago L. C. Gouveia    : GS-ROHF, GS-ROCIS                             
  Yang Guo               : DLPNO-NEVPT2, F12-NEVPT2, CIM, IAO-localization        
  Andreas Hansen         : Spin unrestricted coupled pair/coupled cluster methods 
  Ingolf Harden          : AUTO-CI MPn and infrastructure                
  Benjamin Helmich-Paris : MC-RPA, TRAH-(SCF,CASSCF), AVAS, COSX integrals, SCF dyn. polar., MC-PDFT, srDFT 
  Lee Huntington         : MR-EOM, pCC                                   
  Robert Izsak           : Overlap fitted RIJCOSX, COSX-SCS-MP3, EOM     
  Riya Kayal             : Wick's Theorem for AUTO-CI, AUTO-CI UHF-CCSDT 
  Emily Kempfer          : AUTO-CI RHF CISDT and CCSDT, approximate NEVPT4
  Christian Kollmar      : KDIIS, OOCD, Brueckner-CCSD(T), CCSD density, CASPT2, CASPT2-K, improved NEVPT2 
  Axel Koslowski         : Symmetry handling                             
  Simone Kossmann        : meta-GGA functionals, TD-DFT gradient, OOMP2, (MP2 Hessian; deprecated post 5.0) 
  Lucas Lang             : DCDCAS, Hyperfine gauge corrections, ICE-SOC+SSC
  Marvin Lechner         : AUTO-CI (C++ implementation), FIC-MRCC        
  Spencer Leger          : CASSCF response                               
  Dagmar Lenk            : GEPOL surface, SMD, ORCA-2-JSON               
  Dimitrios Liakos       : Extrapolation schemes; Compound Job, Property file
  Dimitrios Manganas     : Further ROCIS development; embedding schemes. LFT, Crystal Embedding 
  Dimitrios Pantazis     : SARC Basis sets                               
  Anastasios Papadopoulos: AUTO-CI, single reference methods and gradients 
  Taras Petrenko         : pre 6.0 DFT Hessian and TD-DFT gradient,  ECA, NRVS 
  Petra Pikulova         : Analytic Raman intensities                    
  Peter Pinski           : DLPNO-MP2, DLPNO-MP2 Gradient                 
  Shashank Vittal Rao    : ES-AILFT, MagRelax                            
  Christoph Reimann      : Effective Core Potentials                     
  Marius Retegan         : Local ZFS, SOC                                
  Christoph Riplinger    : Optimizer, TS searches, QM/MM, DLPNO-CCSD(T), (RO)-DLPNO pert. Triples 
  Michael Roemelt        : Original ROCIS implementation, recursive CI coupling coefficients
  Masaaki Saitow         : Open-shell DLPNO-CCSD energy and density      
  Barbara Sandhoefer     : DKH picture change effects                    
  Yorick L. A. Schmerwitz: GMF and freeze-and-release deltaSCF, NEB S-IDPP initial path                    
  Kantharuban Sivalingam : CASSCF convergence/infrastructure, NEVPT2, NEVPT3, NEVPT4(SD), FIC-MRCI and CEPA variants
  Bernardo de Souza      : ESD, SOC TD-DFT                               
  Georgi L. Stoychev     : AutoAux, RI-MP2 NMR, DLPNO-MP2 response, X2C  
  Van Anh Tran           : RI-MP2 g-tensors                              
  Willem Van den Heuvel  : Paramagnetic NMR                              
  Zikuan Wang            : NOTCH, Electric field optimization            
  Frank Wennmohs         : Technical directorship and infrastructure     
  Hang Xu                : AUTO-CI-Response properties                   
                                                                         
[FACCTs GmbH]                                                            
  Markus Bursch, Nicolas Foglia, Miquel Garcia-Rates, Ingolf Harden, Hagen Neugebauer, Anastasios Papadopoulos, 
  Christoph Riplinger, Bernardo de Souza, Georgi L. Stoychev                                                    
                                                                 
  APM, various basis sets, CI-OPT, improved COSX, DLPNO-Multilevel,           
  DOCKER, DRACO, updates on ESD, Fragmentator, GOAT, IRC, LR-CPCM, L-BFGS, MBIS, meta-GGA TD-DFT gradient, ML-optimized integration grids, 
  MM, NACMEs, nearIR, NEB, NEB-TS, NL-DFT gradient (VV10), 2- and 3-layer-ONIOM, interface openCOSMO-RS, QMMM,   
  Crystal-QMMM, RESP, rigid body optimization, SF, symmetry and pop. for TD-DFT, various functionals, SOLVATOR                                   
                                                                         
[Other institutions]                                                     
  V. Asgeirsson          : NEB                                           
  Christoph Bannwarth    : sTDA-DFT, sTD-DFT, PBEh-3c, B97-3c, D3        
  Giovanni Bistoni       : ETS/NOCV, ADLD/ADEX, COVALED                  
  Martin Brehm           : Molecular dynamics                            
  Ronald Cardenas        : ETS/NOCV                                      
  Martina Colucci        : COVALED                                       
  Sebastian Ehlert       : rSCAN, r2SCAN, r2SCAN-3c, D4, dhf basis sets  
  Marvin Friede          : D4 for Fr, Ra, Ac-Lr                          
  Lars Goerigk           : TD-DFT with DH, B97 family of functionals     
  Stefan Grimme          : VdW corrections, initial TS optimization, DFT functionals, gCP, sTDA/sTD-DF 
  Waldemar Hujo          : DFT-NL                                        
  H. Jonsson             : NEB                                           
  Holger Kruse           : gCP                                           
  Marcel Mueller         : wB97X-3c, vDZP basis set                      
  Hagen Neugebauer       : wr2SCAN, Native XTB                           
  Gianluca Regni         : ADLD/ADEX                                     
  Tobias Risthaus        : pre 6.0 range-separated hybrid DFT and stability analysis
  Lukas Wittmann         : regularized MP2, r2SCAN double-hybrids, wr2SCAN        
                                                                         
We gratefully acknowledge several colleagues who have allowed us to      
interface, adapt or use parts of their codes:                            
  Ed Valeev, F. Pavosevic, A. Kumar             : LibInt (2-el integral package), F12 methods 
  Garnet Chan, S. Sharma, J. Yang, R. Olivares  : DMRG                   
  Ulf Ekstrom                                   : XCFun DFT Library      
  Mihaly Kallay                                 : mrcc  (arbitrary order and MRCC methods)
  Frank Weinhold                                : gennbo (NPA and NBO analysis)           
  Simon Mueller                                 : openCOSMO-RS                            
  Christopher J. Cramer and Donald G. Truhlar   : smd solvation model                     
  S Lehtola, MJT Oliveira, MAL Marques          : LibXC Library                           
  Liviu Ungur et al                             : ANISO software                          


 Your calculation uses the libint2 library for the computation of 2-el integrals
 For citations please refer to: http://libint.valeyev.net

 Your ORCA version has been built with support for libXC version: 7.0.0
 For citations please refer to: https://libxc.gitlab.io

 This ORCA versions uses:
   CBLAS   interface :  Fast vector & matrix operations
   LAPACKE interface :  Fast linear algebra routines
   SCALAPACK package :  Parallel linear algebra routines
   Shared memory     :  Shared parallel matrices


  ***********************************
  * Starting time: Thu Mar 12 09:33:23 2026
  * Host name:     wtch159.chemie.uni-wuerzburg.de
  * Process ID:    48306
  * Working dir.:  /Users/johannes/simulations/MethodPaper/cc-pvdz/anthracene_CASSCF2.2_tz_geom
  ***********************************

Reading of a custom orbital basis requested
Basis file: /Users/johannes/Documents/Uni/BasisSets/cc-pvdz.bas
Basis read successfully!



***************************************
The coordinates will be read from file: anthracene_opt_MP2_cc-pvtz.xyz
***************************************


================================================================================

----- Orbital basis set information -----
Basis read from file: /Users/johannes/Documents/Uni/BasisSets/cc-pvdz.bas

================================================================================
                                        WARNINGS
                       Please study these warnings very carefully!
================================================================================


IMPORTANT NOTE: CASSCF must signal convergence for a subsequent CASPT2/NEVPT2! 
                Set maxiter=1 to run CASPT2/NEVPT2 with arbitrary orbitals.


================================================================================
                                       INPUT FILE
================================================================================
NAME = orca.inp
|  1> ! PAL8 nopop tightscf printmos RHF
|  2> %basis
|  3> GTOName = "/Users/johannes/Documents/Uni/BasisSets/cc-pvdz.bas"
|  4> end
|  5> %CASSCF
|  6> nel 2
|  7> norb 2
|  8> PTmethod sc_NEVPT2
|  9> nroots 3
| 10> end
| 11> * xyzfile 0 1 anthracene_opt_MP2_cc-pvtz.xyz
| 12> 
| 13>                          ****END OF INPUT****
================================================================================

                       ****************************
                       * Single Point Calculation *
                       ****************************

---------------------------------
CARTESIAN COORDINATES (ANGSTROEM)
---------------------------------
  C     -3.648732    0.709060   -0.000000
  C     -2.465580    1.404281   -0.000000
  C     -1.219771    0.720035    0.000000
  C     -1.219771   -0.720035    0.000000
  C     -2.465580   -1.404281    0.000000
  C     -3.648732   -0.709060   -0.000000
  C      0.000000    1.403583    0.000000
  C      1.219771    0.720035    0.000000
  C     -0.000000   -1.403583    0.000000
  C      1.219771   -0.720035    0.000000
  C      2.465580    1.404281    0.000000
  C      3.648732    0.709060   -0.000000
  C      3.648732   -0.709060   -0.000000
  C      2.465580   -1.404281   -0.000000
  H     -4.588790    1.244069   -0.000000
  H     -2.464790    2.487506   -0.000000
  H     -2.464791   -2.487506    0.000000
  H     -4.588790   -1.244069   -0.000000
  H     -0.000000    2.488463    0.000000
  H     -0.000000   -2.488464    0.000000
  H      2.464790    2.487506    0.000000
  H      4.588790    1.244069   -0.000000
  H      4.588790   -1.244069   -0.000000
  H      2.464791   -2.487506   -0.000000

----------------------------
CARTESIAN COORDINATES (A.U.)
----------------------------
  NO LB      ZA    FRAG     MASS         X           Y           Z
   0 C     6.0000    0    12.011   -6.895104    1.339930   -0.000000
   1 C     6.0000    0    12.011   -4.659270    2.653706   -0.000000
   2 C     6.0000    0    12.011   -2.305033    1.360668    0.000000
   3 C     6.0000    0    12.011   -2.305033   -1.360668    0.000000
   4 C     6.0000    0    12.011   -4.659271   -2.653706    0.000000
   5 C     6.0000    0    12.011   -6.895104   -1.339930   -0.000000
   6 C     6.0000    0    12.011    0.000000    2.652387    0.000000
   7 C     6.0000    0    12.011    2.305033    1.360668    0.000000
   8 C     6.0000    0    12.011   -0.000000   -2.652387    0.000000
   9 C     6.0000    0    12.011    2.305033   -1.360668    0.000000
  10 C     6.0000    0    12.011    4.659270    2.653706    0.000000
  11 C     6.0000    0    12.011    6.895104    1.339930   -0.000000
  12 C     6.0000    0    12.011    6.895104   -1.339930   -0.000000
  13 C     6.0000    0    12.011    4.659270   -2.653706   -0.000000
  14 H     1.0000    0     1.008   -8.671556    2.350950   -0.000001
  15 H     1.0000    0     1.008   -4.657778    4.700705   -0.000000
  16 H     1.0000    0     1.008   -4.657779   -4.700705    0.000000
  17 H     1.0000    0     1.008   -8.671556   -2.350949   -0.000000
  18 H     1.0000    0     1.008   -0.000000    4.702514    0.000000
  19 H     1.0000    0     1.008   -0.000000   -4.702515    0.000000
  20 H     1.0000    0     1.008    4.657779    4.700705    0.000000
  21 H     1.0000    0     1.008    8.671556    2.350950   -0.000000
  22 H     1.0000    0     1.008    8.671556   -2.350949   -0.000001
  23 H     1.0000    0     1.008    4.657779   -4.700705   -0.000000

--------------------------------
INTERNAL COORDINATES (ANGSTROEM)
--------------------------------
 C      0   0   0     0.000000000000     0.00000000     0.00000000
 C      1   0   0     1.372290189387     0.00000000     0.00000000
 C      2   1   0     1.421348765267   120.78422288     0.00000000
 C      3   2   1     1.440069230931   118.77727512     0.00000000
 C      4   3   2     1.421348842316   118.77727976     0.00000000
 C      5   4   3     1.372290196873   120.78422317     0.00000000
 C      3   2   1     1.398241305006   121.95686301   179.99999628
 C      7   3   2     1.398241253967   121.46828920   180.00001046
 C      4   3   2     1.398241289156   119.26585033   179.99998972
 C      9   4   3     1.398241336399   121.46828848     0.00000000
 C      8   7   3     1.421348728911   121.95686667   179.99999565
 C     11   8   7     1.372290142441   120.78422052   180.00000616
 C     12  11   8     1.418120522733   120.43849882     0.00000000
 C     13  12  11     1.372290153369   120.43850337     0.00000000
 H      1   2   3     1.081639131033   119.91629625   180.00000308
 H      2   1   3     1.083225616243   120.48025174   179.99999548
 H      5   4   3     1.083225617345   118.73553262   180.00000000
 H      6   5   4     1.081639103834   119.91630177   179.99999609
 H      7   3   2     1.084880885552   119.26585030     0.00000000
 H      9   4   3     1.084880969255   119.26584984   180.00000579
 H     11   8   7     1.083225590483   118.73553266     0.00000000
 H     12  11   8     1.081639106920   119.91629903   179.99999829
 H     13  12  11     1.081639079467   119.64520131   179.99999759
 H     14  13  12     1.083225613510   120.48024439   180.00000000

---------------------------
INTERNAL COORDINATES (A.U.)
---------------------------
 C      0   0   0     0.000000000000     0.00000000     0.00000000
 C      1   0   0     2.593252634209     0.00000000     0.00000000
 C      2   1   0     2.685959907141   120.78422288     0.00000000
 C      3   2   1     2.721336460346   118.77727512     0.00000000
 C      4   3   2     2.685960052743   118.77727976     0.00000000
 C      5   4   3     2.593252648355   120.78422317     0.00000000
 C      3   2   1     2.642293135598   121.95686301   179.99999628
 C      7   3   2     2.642293039148   121.46828920   180.00001046
 C      4   3   2     2.642293105646   119.26585033   179.99998972
 C      9   4   3     2.642293194922   121.46828848     0.00000000
 C      8   7   3     2.685959838439   121.95686667   179.99999565
 C     11   8   7     2.593252545494   120.78422052   180.00000616
 C     12  11   8     2.679859412858   120.43849882     0.00000000
 C     13  12  11     2.593252566145   120.43850337     0.00000000
 H      1   2   3     2.044001733386   119.91629625   180.00000308
 H      2   1   3     2.046999755947   120.48025174   179.99999548
 H      5   4   3     2.046999758031   118.73553262   180.00000000
 H      6   5   4     2.044001681987   119.91630177   179.99999609
 H      7   3   2     2.050127761619   119.26585030     0.00000000
 H      9   4   3     2.050127919794   119.26584984   180.00000579
 H     11   8   7     2.046999707268   118.73553266     0.00000000
 H     12  11   8     2.044001687819   119.91629903   179.99999829
 H     13  12  11     2.044001635939   119.64520131   179.99999759
 H     14  13  12     2.046999750783   120.48024439   180.00000000

---------------------
BASIS SET INFORMATION
---------------------
There are 2 groups of distinct atoms

 Group   1 Type C   : 19s5p1d contracted to 3s2p1d pattern {991/41/1}
 Group   2 Type H   : 5s1p contracted to 2s1p pattern {41/1}

Atom   0C    basis set group =>   1
Atom   1C    basis set group =>   1
Atom   2C    basis set group =>   1
Atom   3C    basis set group =>   1
Atom   4C    basis set group =>   1
Atom   5C    basis set group =>   1
Atom   6C    basis set group =>   1
Atom   7C    basis set group =>   1
Atom   8C    basis set group =>   1
Atom   9C    basis set group =>   1
Atom  10C    basis set group =>   1
Atom  11C    basis set group =>   1
Atom  12C    basis set group =>   1
Atom  13C    basis set group =>   1
Atom  14H    basis set group =>   2
Atom  15H    basis set group =>   2
Atom  16H    basis set group =>   2
Atom  17H    basis set group =>   2
Atom  18H    basis set group =>   2
Atom  19H    basis set group =>   2
Atom  20H    basis set group =>   2
Atom  21H    basis set group =>   2
Atom  22H    basis set group =>   2
Atom  23H    basis set group =>   2

Checking for AutoStart:
The File: orca.gbw exists
Trying to determine its content:
     ... Fine, the file contains calculation information
     ... Fine, the calculation information was read
     ... Fine, the file contains a basis set
     ... Fine, the basis set was read
     ... Fine, the file contains a geometry
     ... Fine, the geometry was read
     ... Fine, the file contains a set of orbitals
     ... Fine, the orbitals can be read
     => possible old guess file was deleted
     => GBW file was renamed to GES file
     => GES file is set as startup file
     => Guess is set to MORead
     ... now leaving AutoStart



           ************************************************************
           *        Program running with 8 parallel MPI-processes     *
           *              working on a common directory               *
           ************************************************************
------------------------------------------------------------------------------
                             ORCA STARTUP CALCULATIONS
------------------------------------------------------------------------------
------------------------------------------------------------------------------
                   ___                                                        
                  /   \      - P O W E R E D   B Y -                         
                 /     \                                                     
                 |  |  |   _    _      __       _____    __    __             
                 |  |  |  | |  | |    /  \     |  _  \  |  |  /  |          
                  \  \/   | |  | |   /    \    | | | |  |  | /  /          
                 / \  \   | |__| |  /  /\  \   | |_| |  |  |/  /          
                |  |  |   |  __  | /  /__\  \  |    /   |      \           
                |  |  |   | |  | | |   __   |  |    \   |  |\   \          
                \     /   | |  | | |  |  |  |  | |\  \  |  | \   \       
                 \___/    |_|  |_| |__|  |__|  |_| \__\ |__|  \__/        
                                                                              
                      - O R C A' S   B I G   F R I E N D -                    
                                      &                                       
                       - I N T E G R A L  F E E D E R -                       
                                                                              
 v1 FN, 2020, v2 2021, v3 2022-2024                                           
------------------------------------------------------------------------------


----------------------
SHARK INTEGRAL PACKAGE
----------------------

Number of atoms                             ...     24
Number of basis functions                   ...    344
Number of shells                            ...    212
Maximum angular momentum                    ...      2
Integral batch strategy                     ... SHARK/LIBINT Hybrid
RI-J (if used) integral strategy            ... SPLIT-RIJ (Revised 2003 algorithm where possible)
Printlevel                                  ...      1
Contraction scheme used                     ... PARTIAL GENERAL contraction
Prescreening option                         ... SCHWARTZ
   Thresh                                   ... 2.500e-11
   Tcut                                     ... 2.500e-12
   Tpresel                                  ... 2.500e-12 
Coulomb Range Separation                    ... NOT USED
Exchange Range Separation                   ... NOT USED
Multipole approximations                    ... NOT USED
Finite Nucleus Model                        ... NOT USED
CABS basis                                  ... NOT available
Auxiliary Coulomb fitting basis             ... NOT available
Auxiliary J/K fitting basis                 ... NOT available
Auxiliary Correlation fitting basis         ... NOT available
Auxiliary 'external' fitting basis          ... NOT available

Checking pre-screening integrals            ... done (  0.0 sec) Dimension = 212
Save PGC pre-screening integrals            ... done (  0.0 sec) Dimension = 212
Calculate PGC overlap integrals             ... done (  0.0 sec) Dimension = 114
Calculating pre-screening integrals (ORCA)  ... done (  0.0 sec) Dimension = 114
Shell pair information
Shell pair cut-off parameter TPreSel        ...   2.5e-12
Total number of shell pairs                 ...     22578
Shell pairs after pre-screening             ...     16034
Total number of primitive shell pairs       ...     40614
Primitive shell pairs kept                  ...     26255
          la=0 lb=0:   7765 shell pairs
          la=1 lb=0:   5226 shell pairs
          la=1 lb=1:    698 shell pairs
          la=2 lb=0:   1756 shell pairs
          la=2 lb=1:    496 shell pairs
          la=2 lb=2:     93 shell pairs

Checking whether 4 symmetric matrices of dimension 344 fit in memory
:Max Core in MB      =   4096.00
 MB in use           =     15.18
 MB left             =   4080.82
 MB needed           =      1.81
 Data fit in memory  = YES
Calculating Nuclear repulsion               ... done (  0.0 sec) ENN=    767.676862851775 Eh

Diagonalization of the overlap matrix:
Smallest eigenvalue                        ... 1.158e-04
Time for diagonalization                   ...    0.004 sec
Threshold for overlap eigenvalues          ... 1.000e-07
Number of eigenvalues below threshold      ... 0
Time for construction of square roots      ...    0.001 sec
Total time needed                          ...    0.006 sec

-------------------
DFT GRID GENERATION
-------------------

General Integration Accuracy     IntAcc      ... 4.388
Radial Grid Type                 RadialGrid  ... OptM3 with GC (2021)
Angular Grid (max. ang.)         AngularGrid ... 4 (Lebedev-302)
Angular grid pruning method      GridPruning ... 4 (adaptive)
Weight generation scheme         WeightScheme... mBecke (2022)
Basis function cutoff            BFCut       ... 1.0000e-11
Integration weight cutoff        WCut        ... 1.0000e-14
Partially contracted basis set               ... off
Rotationally invariant grid construction     ... off
Angular grids for H and He will be reduced by one unit

Total number of grid points                  ...   115566
Total number of batches                      ...     1818
Average number of points per batch           ...       63
Average number of grid points per atom       ...     4815

---------------------
SHARK GRID GENERATION
---------------------

General Integration Accuracy     IntAcc      ... 4.388
Radial Grid Type                 RadialGrid  ... OptM3 with GC (2021)
Angular Grid (max. ang.)         AngularGrid ... 4 (Lebedev-302)
Angular grid pruning method      GridPruning ... 4 (adaptive)
Weight generation scheme         WeightScheme... mBecke (2022)
Basis function cutoff            BFCut       ... 1.0000e-11
Integration weight cutoff        WCut        ... 1.0000e-14
Partially contracted basis set               ... off
Rotationally invariant grid construction     ... off
Angular grids for H and He will be reduced by one unit
Steep s-basis detected: some atoms will have their radial
                        grid points doubled.

Total number of grid points                  ...   199872
Total number of batches                      ...     3134
Average number of points per batch           ...       63
Average number of grid points per atom       ...     8328
Grids setup in   1.6 sec
Initializing property integral containers    ... done (  0.0 sec)

SHARK setup successfully completed in   1.8 seconds

Maximum memory used throughout the entire STARTUP-calculation: 51.4 MB


           ************************************************************
           *        Program running with 8 parallel MPI-processes     *
           *              working on a common directory               *
           ************************************************************
-------------------------------------------------------------------------------
                                 ORCA GUESS
                   Start orbitals & Density for SCF / CASSCF
-------------------------------------------------------------------------------

------------
SCF SETTINGS
------------
Hamiltonian:
 Ab initio Hamiltonian  Method          .... Hartree-Fock(GTOs)


General Settings:
 Integral files         IntName         .... orca
 Hartree-Fock type      HFTyp           .... CASSCF
 Total Charge           Charge          ....    0
 Multiplicity           Mult            ....    1
 Number of Electrons    NEL             ....   94
 Basis Dimension        Dim             ....  246
 Nuclear Repulsion      ENuc            ....    767.6768628518 Eh

---------------------
INITIAL GUESS: MOREAD
---------------------
Guess MOs are being read from file: orca.ges
Input geometry compatible with but different from current geometry
Input basis set matches current basis set (good)
Occupation numbers will be reassigned to an Aufbau configuration
MOs were renormalized
Gram-Schmidt orthogonalization of all MOs with pivot on actives
                      ------------------
                      INITIAL GUESS DONE (   0.1 sec)
                      ------------------
             **** ENERGY FILE WAS UPDATED (orca.en.tmp) ****
Finished Guess after   0.2 sec
Maximum memory used throughout the entire GUESS-calculation: 19.3 MB


           ************************************************************
           *        Program running with 8 parallel MPI-processes     *
           *              working on a common directory               *
           ************************************************************
-------------------------------------------------------------------------------
                              ORCA-CASSCF
-------------------------------------------------------------------------------

Building the CAS space              ... done (3 configurations for Mult=1)
Memory for address arrays  		      ... done
Make address arrays			      ... done
Memory for buffers 			      ... done
Setting up spin-function prototypes	      ... (MAXOPEN=2) 0 2 4 done
Trivial cases - DOMO's			      ... done (  0.0 MB)
Number of open shells			    ...  0
domo->virtual excitations			... done (  0.0 MB)
domo->somo excitations				... done (  0.0 MB)
somo->virtual excitations			... done (  0.0 MB)
somo->somo excitations				... done (  0.0 MB)
Number of open shells			    ...  2
domo->virtual excitations			... done (  0.0 MB)
domo->somo excitations				... done (  0.0 MB)
somo->virtual excitations			... done (  0.0 MB)
somo->somo excitations				... done (  0.0 MB)
Coupling container construction done

 CASSCF (estimated) memory needed     ... 5.8 MB
 NEVPT2 (estimated) memory needed     ... 59.3 MB


SYSTEM-SPECIFIC SETTINGS:
Number of active electrons          ...    2
Number of active orbitals           ...    2
Total number of electrons           ...   94
Total number of orbitals            ...  246

Determined orbital ranges:
   Internal       0 -   45 (  46 orbitals)
   Active        46 -   47 (   2 orbitals)
   External      48 -  245 ( 198 orbitals)
Number of rotation parameters      ...   9596

CI-STEP:
CI strategy                         ... General CI
Number of multiplicity blocks       ...    1
BLOCK  0 WEIGHT=   1.0000
  Multiplicity                      ...    1
  #(Configurations)                 ...    3
  #(CSFs)                           ...    3
  #(Roots)                          ...    3
    ROOT=0 WEIGHT=    0.333333
    ROOT=1 WEIGHT=    0.333333
    ROOT=2 WEIGHT=    0.333333

  PrintLevel                        ...    1
  N(GuessMat)                       ...      2048
  MaxDim(CI)                        ...        10
  MaxIter(CI)                       ...        64
  Energy Tolerance CI               ...  2.50e-09
  Residual Tolerance CI             ...  2.50e-09
  Shift(CI)                         ...  1.00e-04

INTEGRAL-TRANSFORMATION-STEP:
  Algorithm                         ... EXACT

ORBITAL-IMPROVEMENT-STEP:
  Algorithm                         ... SuperCI(PT)
  Default Parametrization           ... CAYLEY
  Act-Act rotations                 ... depends on algorithm used

  Note: SuperCI(PT) will ignore FreezeIE, FreezeAct and FreezeGrad. In general Default settings are encouraged.
        In conjunction with ShiftUp, ShiftDn or GradScaling the performance of SuperCI(PT) is less optimal.  

  MaxRot                            ... 2.00e-01 
  Max. no of vectors (DIIS)         ... 15
  DThresh (cut-off) metric          ... 1.00e-06
  Switch step at gradient           ...  3.00e-02 
  Switch step at iteration          ...        50   
  Switch step to                    ... SuperCI(PT)    

SCF-SETTINGS:
  Incremental                       ... on
  RIJCOSX approximation             ... off
  RI-JK approximation               ... off
  AO integral handling              ... DIRECT
  Integral Neglect Thresh           ...  2.50e-11
  Primitive cutoff TCut             ...  2.50e-12
  Energy convergence tolerance      ...  2.50e-08
  Orbital gradient convergence      ...  2.50e-04
  Max. number of iterations         ...        75  

PT2-SETTINGS:
  A PT2 calculation will be performed on top of the CASSCF wave function (PT2 = SC-NEVPT2)   
 CI step strategy                   ... General CI
  D4C handling                      ... PS approximation (factorized) 
  CI truncation for D4C at          ...  1.00e-12
  CI truncation for D3  at          ...  1.00e-14
  Orbitals                          ... canonical for each state 
  Last  frozen  orbital             ... 13
  First deleted orbital             ... 246

FINAL ORBITALS:
  Active   Orbitals                 ... natural 
  Internal Orbitals                 ... canonical 
  External Orbitals                 ... canonical 

------------------
CAS-SCF ITERATIONS
------------------


MACRO-ITERATION   1: 
   --- Inactive Energy E0 = -535.31496825 Eh
CI-ITERATION   0: 
  -536.039392141   0.000000000000 (    0.00)
  -535.856412204   0.000000000000
  -535.743925155   0.000000000000
   CI-PROBLEM SOLVED
   DENSITIES MADE

                 <<<<<<<<<<<<<<<<<<INITIAL CI STATE CHECK>>>>>>>>>>>>>>>>>>

BLOCK  0 MULT= 1 NROOTS= 3 
ROOT   0:  E=    -536.0393921406 Eh
      0.98294 [     0]: 20
      0.01706 [     2]: 02
ROOT   1:  E=    -535.8564122043 Eh  4.979 eV  40159.5 cm**-1
      1.00000 [     1]: 11
ROOT   2:  E=    -535.7439251554 Eh  8.040 eV  64847.5 cm**-1
      0.98294 [     2]: 02
      0.01706 [     0]: 20

                 <<<<<<<<<<<<<<<<<<INITIAL CI STATE CHECK>>>>>>>>>>>>>>>>>>

   E(CAS)=  -535.879909833 Eh DE=    0.000000e+00
   --- Energy gap subspaces: Ext-Act = 0.155   Act-Int = 0.149
   N(occ)=  1.00000 1.00000
   ||g|| =     1.333658e-01 Max(G)=    2.590955e-02 Rot=48,44
   --- Orbital Update [SuperCI(PT)]
   --- Canonicalize Internal Space
   --- Canonicalize External Space
   --- SX_PT (Skipped TA=0 IT=0): ||X|| =      0.039667982 Max(X)(46,43) =      0.018165608 
   --- SFit(Active Orbitals)

MACRO-ITERATION   2: 
   --- Inactive Energy E0 = -535.32538847 Eh
CI-ITERATION   0: 
  -536.036782783   0.000000000001 (    0.00)
  -535.859939545   0.000000000001
  -535.749581735   0.000000000000
   CI-PROBLEM SOLVED
   DENSITIES MADE
   E(CAS)=  -535.882101354 Eh DE=   -2.191521e-03
   --- Energy gap subspaces: Ext-Act = 0.156   Act-Int = 0.153
   N(occ)=  1.00000 1.00000
   ||g|| =     4.194555e-02 Max(G)=   -1.553182e-02 Rot=49,45
   --- Orbital Update [SuperCI(PT)]
   --- Canonicalize Internal Space
   --- Canonicalize External Space
   --- SX_PT (Skipped TA=0 IT=0): ||X|| =      0.016988903 Max(X)(49,45) =      0.009042840 
   --- SFit(Active Orbitals)

MACRO-ITERATION   3: 
   --- Inactive Energy E0 = -535.32367232 Eh
CI-ITERATION   0: 
  -536.035896414   0.000000000000 (    0.00)
  -535.860535279   0.000000000000
  -535.750770498   0.000000000000
   CI-PROBLEM SOLVED
   DENSITIES MADE
   E(CAS)=  -535.882400730 Eh DE=   -2.993760e-04
   --- Energy gap subspaces: Ext-Act = 0.156   Act-Int = 0.153
   N(occ)=  1.00000 1.00000
   ||g|| =     2.559666e-02 Max(G)=    1.046858e-02 Rot=48,44
   --- Orbital Update [SuperCI(PT)]
   --- Canonicalize Internal Space
   --- Canonicalize External Space
   --- SX_PT (Skipped TA=0 IT=0): ||X|| =      0.012520399 Max(X)(46,43) =      0.009274458 
   --- SFit(Active Orbitals)

MACRO-ITERATION   4: 
   --- Inactive Energy E0 = -535.32571164 Eh
CI-ITERATION   0: 
  -536.035153676   0.000000000001 (    0.00)
  -535.860697801   0.000000000000
  -535.751697356   0.000000000000
   CI-PROBLEM SOLVED
   DENSITIES MADE
   E(CAS)=  -535.882516278 Eh DE=   -1.155476e-04
   --- Energy gap subspaces: Ext-Act = 0.157   Act-Int = 0.153
   N(occ)=  1.00000 1.00000
   ||g|| =     9.822694e-03 Max(G)=   -4.581603e-03 Rot=49,45
   --- Orbital Update [SuperCI(PT)]
   --- Canonicalize Internal Space
   --- Canonicalize External Space
   --- SX_PT (Skipped TA=0 IT=0): ||X|| =      0.005555212 Max(X)(50,47) =     -0.003829436 
   --- SFit(Active Orbitals)

MACRO-ITERATION   5: 
   --- Inactive Energy E0 = -535.32626225 Eh
CI-ITERATION   0: 
  -536.034765267   0.000000000000 (    0.00)
  -535.860688461   0.000000000000
  -535.752196363   0.000000000000
   CI-PROBLEM SOLVED
   DENSITIES MADE
   E(CAS)=  -535.882550030 Eh DE=   -3.375259e-05
   --- Energy gap subspaces: Ext-Act = 0.157   Act-Int = 0.154
   N(occ)=  1.00000 1.00000
   ||g|| =     6.663038e-03 Max(G)=    1.618897e-03 Rot=48,44
   --- Orbital Update [SuperCI(PT)]
   --- Canonicalize Internal Space
   --- Canonicalize External Space
   --- SX_PT (Skipped TA=0 IT=0): ||X|| =      0.002414249 Max(X)(46,43) =     -0.001511342 
   --- SFit(Active Orbitals)

MACRO-ITERATION   6: 
   --- Inactive Energy E0 = -535.32663495 Eh
CI-ITERATION   0: 
  -536.034677270   0.000000000000 (    0.00)
  -535.860675988   0.000000000000
  -535.752314291   0.000000000000
   CI-PROBLEM SOLVED
   DENSITIES MADE
   E(CAS)=  -535.882555850 Eh DE=   -5.819119e-06
   --- Energy gap subspaces: Ext-Act = 0.157   Act-Int = 0.153
   N(occ)=  1.00000 1.00000
   ||g|| =     1.897492e-03 Max(G)=   -4.439608e-04 Rot=48,44
   --- Orbital Update [SuperCI(PT)]
   --- Canonicalize Internal Space
   --- Canonicalize External Space
   --- SX_PT (Skipped TA=0 IT=0): ||X|| =      0.000796591 Max(X)(50,47) =     -0.000615994 
   --- SFit(Active Orbitals)

MACRO-ITERATION   7: 
   --- Inactive Energy E0 = -535.32654804 Eh
CI-ITERATION   0: 
  -536.034686579   0.000000000000 (    0.00)
  -535.860685802   0.000000000000
  -535.752296544   0.000000000000
   CI-PROBLEM SOLVED
   DENSITIES MADE
   E(CAS)=  -535.882556308 Eh DE=   -4.587230e-07
   --- Energy gap subspaces: Ext-Act = 0.157   Act-Int = 0.153
   N(occ)=  1.00000 1.00000
   ||g|| =     7.531533e-04 Max(G)=   -2.038913e-04 Rot=50,42
   --- Orbital Update [SuperCI(PT)]
   --- Canonicalize Internal Space
   --- Canonicalize External Space
   --- SX_PT (Skipped TA=0 IT=0): ||X|| =      0.000333295 Max(X)(50,47) =     -0.000225675 
   --- SFit(Active Orbitals)

MACRO-ITERATION   8: 
   --- Inactive Energy E0 = -535.32663378 Eh
CI-ITERATION   0: 
  -536.034707175   0.000000000000 (    0.00)
  -535.860697346   0.000000000000
  -535.752264801   0.000000000000
   CI-PROBLEM SOLVED
   DENSITIES MADE
   E(CAS)=  -535.882556441 Eh DE=   -1.324058e-07
   --- Energy gap subspaces: Ext-Act = 0.157   Act-Int = 0.153
   N(occ)=  1.00000 1.00000
   ||g|| =     2.428851e-04 Max(G)=   -4.809184e-05 Rot=48,44
                     ---- THE CAS-SCF GRADIENT HAS CONVERGED ----
                            --- FINALIZING ORBITALS ---
                    ---- DOING ONE FINAL ITERATION FOR PRINTING ----
   --- Canonicalize Internal Space
   --- Canonicalize External Space

MACRO-ITERATION   9: 
   --- Inactive Energy E0 = -535.32663377 Eh
   --- All densities will be recomputed
CI-ITERATION   0: 
  -536.034707171   0.000000000000 (    0.00)
  -535.860697343   0.000000000000
  -535.752264797   0.000000000000
   CI-PROBLEM SOLVED
   DENSITIES MADE
   E(CAS)=  -535.882556437 Eh DE=    3.737227e-09
   --- Energy gap subspaces: Ext-Act = 0.150   Act-Int = 0.148
   N(occ)=  1.00000 1.00000
   ||g|| =     2.428854e-04 Max(G)=    4.809310e-05 Rot=48,44
--------------
CASSCF RESULTS
--------------

Final CASSCF energy       : -535.882556437 Eh  -14582.1057 eV

----------------
ORBITAL ENERGIES
----------------

  NO   OCC          E(Eh)            E(eV) 
   0   2.0000     -11.250415      -306.1394 
   1   2.0000     -11.249999      -306.1280 
   2   2.0000     -11.249840      -306.1237 
   3   2.0000     -11.249062      -306.1025 
   4   2.0000     -11.248569      -306.0891 
   5   2.0000     -11.248240      -306.0802 
   6   2.0000     -11.243334      -305.9467 
   7   2.0000     -11.243333      -305.9467 
   8   2.0000     -11.243273      -305.9450 
   9   2.0000     -11.243272      -305.9450 
  10   2.0000     -11.241164      -305.8876 
  11   2.0000     -11.241164      -305.8876 
  12   2.0000     -11.240179      -305.8608 
  13   2.0000     -11.240179      -305.8608 
  14   2.0000      -1.189709       -32.3736 
  15   2.0000      -1.148128       -31.2421 
  16   2.0000      -1.086439       -29.5635 
  17   2.0000      -1.068085       -29.0641 
  18   2.0000      -1.024886       -27.8886 
  19   2.0000      -1.007497       -27.4154 
  20   2.0000      -0.962788       -26.1988 
  21   2.0000      -0.881695       -23.9921 
  22   2.0000      -0.844835       -22.9891 
  23   2.0000      -0.818330       -22.2679 
  24   2.0000      -0.810991       -22.0682 
  25   2.0000      -0.746285       -20.3074 
  26   2.0000      -0.709941       -19.3185 
  27   2.0000      -0.689443       -18.7607 
  28   2.0000      -0.650192       -17.6926 
  29   2.0000      -0.639638       -17.4054 
  30   2.0000      -0.630064       -17.1449 
  31   2.0000      -0.618090       -16.8191 
  32   2.0000      -0.591687       -16.1006 
  33   2.0000      -0.582135       -15.8407 
  34   2.0000      -0.573023       -15.5927 
  35   2.0000      -0.548948       -14.9376 
  36   2.0000      -0.543545       -14.7906 
  37   2.0000      -0.536420       -14.5967 
  38   2.0000      -0.497173       -13.5288 
  39   2.0000      -0.492412       -13.3992 
  40   2.0000      -0.485337       -13.2067 
  41   2.0000      -0.472768       -12.8647 
  42   2.0000      -0.406509       -11.0617 
  43   2.0000      -0.398468       -10.8429 
  44   2.0000      -0.332419        -9.0456 
  45   2.0000      -0.316442        -8.6108 
  46   1.0000      -0.168545        -4.5864 
  47   1.0000      -0.031910        -0.8683 
  48   0.0000       0.118504         3.2247 
  49   0.0000       0.137300         3.7361 
  50   0.0000       0.183946         5.0054 
  51   0.0000       0.187328         5.0975 
  52   0.0000       0.188934         5.1411 
  53   0.0000       0.191536         5.2120 
  54   0.0000       0.219761         5.9800 
  55   0.0000       0.220173         5.9912 
  56   0.0000       0.224653         6.1131 
  57   0.0000       0.245352         6.6764 
  58   0.0000       0.246368         6.7040 
  59   0.0000       0.260518         7.0891 
  60   0.0000       0.283743         7.7210 
  61   0.0000       0.310269         8.4428 
  62   0.0000       0.345541         9.4027 
  63   0.0000       0.368429        10.0255 
  64   0.0000       0.402297        10.9471 
  65   0.0000       0.430802        11.7227 
  66   0.0000       0.431288        11.7359 
  67   0.0000       0.433664        11.8006 
  68   0.0000       0.465460        12.6658 
  69   0.0000       0.466656        12.6984 
  70   0.0000       0.474366        12.9082 
  71   0.0000       0.484546        13.1852 
  72   0.0000       0.513087        13.9618 
  73   0.0000       0.518244        14.1021 
  74   0.0000       0.590080        16.0569 
  75   0.0000       0.595569        16.2063 
  76   0.0000       0.638395        17.3716 
  77   0.0000       0.649247        17.6669 
  78   0.0000       0.660429        17.9712 
  79   0.0000       0.662410        18.0251 
  80   0.0000       0.675482        18.3808 
  81   0.0000       0.679774        18.4976 
  82   0.0000       0.683091        18.5878 
  83   0.0000       0.695344        18.9213 
  84   0.0000       0.699699        19.0398 
  85   0.0000       0.704746        19.1771 
  86   0.0000       0.711069        19.3492 
  87   0.0000       0.716990        19.5103 
  88   0.0000       0.729196        19.8424 
  89   0.0000       0.733210        19.9516 
  90   0.0000       0.736828        20.0501 
  91   0.0000       0.742126        20.1943 
  92   0.0000       0.742473        20.2037 
  93   0.0000       0.759722        20.6731 
  94   0.0000       0.762153        20.7392 
  95   0.0000       0.766935        20.8694 
  96   0.0000       0.773950        21.0602 
  97   0.0000       0.774385        21.0721 
  98   0.0000       0.785000        21.3609 
  99   0.0000       0.790510        21.5109 
 100   0.0000       0.802937        21.8490 
 101   0.0000       0.847137        23.0518 
 102   0.0000       0.848504        23.0890 
 103   0.0000       0.861153        23.4332 
 104   0.0000       0.869189        23.6518 
 105   0.0000       0.871553        23.7162 
 106   0.0000       0.884141        24.0587 
 107   0.0000       0.903533        24.5864 
 108   0.0000       0.911677        24.8080 
 109   0.0000       0.914429        24.8829 
 110   0.0000       0.928147        25.2562 
 111   0.0000       0.943558        25.6755 
 112   0.0000       0.952252        25.9121 
 113   0.0000       0.953361        25.9423 
 114   0.0000       0.987328        26.8666 
 115   0.0000       1.000007        27.2116 
 116   0.0000       1.000199        27.2168 
 117   0.0000       1.043643        28.3990 
 118   0.0000       1.062609        28.9150 
 119   0.0000       1.094823        29.7916 
 120   0.0000       1.102698        30.0059 
 121   0.0000       1.118794        30.4439 
 122   0.0000       1.129889        30.7458 
 123   0.0000       1.130418        30.7602 
 124   0.0000       1.137219        30.9453 
 125   0.0000       1.139542        31.0085 
 126   0.0000       1.143719        31.1222 
 127   0.0000       1.151755        31.3408 
 128   0.0000       1.157515        31.4976 
 129   0.0000       1.179816        32.1044 
 130   0.0000       1.195297        32.5257 
 131   0.0000       1.209013        32.8989 
 132   0.0000       1.216131        33.0926 
 133   0.0000       1.218856        33.1668 
 134   0.0000       1.233809        33.5737 
 135   0.0000       1.235117        33.6093 
 136   0.0000       1.250329        34.0232 
 137   0.0000       1.254362        34.1329 
 138   0.0000       1.282419        34.8964 
 139   0.0000       1.282735        34.9050 
 140   0.0000       1.301760        35.4227 
 141   0.0000       1.313508        35.7424 
 142   0.0000       1.325229        36.0613 
 143   0.0000       1.332878        36.2694 
 144   0.0000       1.340023        36.4639 
 145   0.0000       1.349496        36.7216 
 146   0.0000       1.391467        37.8637 
 147   0.0000       1.392515        37.8923 
 148   0.0000       1.413347        38.4591 
 149   0.0000       1.540465        41.9182 
 150   0.0000       1.541406        41.9438 
 151   0.0000       1.547812        42.1181 
 152   0.0000       1.624386        44.2018 
 153   0.0000       1.624706        44.2105 
 154   0.0000       1.632106        44.4119 
 155   0.0000       1.644479        44.7485 
 156   0.0000       1.663610        45.2691 
 157   0.0000       1.677358        45.6432 
 158   0.0000       1.693833        46.0915 
 159   0.0000       1.699720        46.2517 
 160   0.0000       1.736879        47.2629 
 161   0.0000       1.741489        47.3883 
 162   0.0000       1.743357        47.4392 
 163   0.0000       1.754793        47.7503 
 164   0.0000       1.777798        48.3763 
 165   0.0000       1.784898        48.5695 
 166   0.0000       1.786554        48.6146 
 167   0.0000       1.813459        49.3467 
 168   0.0000       1.842495        50.1368 
 169   0.0000       1.866557        50.7916 
 170   0.0000       1.873345        50.9763 
 171   0.0000       1.882494        51.2253 
 172   0.0000       1.886553        51.3357 
 173   0.0000       1.892560        51.4992 
 174   0.0000       1.913662        52.0734 
 175   0.0000       1.915461        52.1223 
 176   0.0000       1.917337        52.1734 
 177   0.0000       1.936164        52.6857 
 178   0.0000       1.962271        53.3961 
 179   0.0000       1.966171        53.5022 
 180   0.0000       1.972288        53.6687 
 181   0.0000       1.973990        53.7150 
 182   0.0000       1.982780        53.9542 
 183   0.0000       1.999290        54.4034 
 184   0.0000       2.005533        54.5733 
 185   0.0000       2.026397        55.1411 
 186   0.0000       2.036243        55.4090 
 187   0.0000       2.043636        55.6102 
 188   0.0000       2.045942        55.6729 
 189   0.0000       2.048944        55.7546 
 190   0.0000       2.051978        55.8372 
 191   0.0000       2.083459        56.6938 
 192   0.0000       2.114906        57.5495 
 193   0.0000       2.119015        57.6613 
 194   0.0000       2.127264        57.8858 
 195   0.0000       2.139396        58.2159 
 196   0.0000       2.150078        58.5066 
 197   0.0000       2.151016        58.5321 
 198   0.0000       2.172228        59.1093 
 199   0.0000       2.176688        59.2307 
 200   0.0000       2.180511        59.3347 
 201   0.0000       2.186226        59.4902 
 202   0.0000       2.235639        60.8348 
 203   0.0000       2.240885        60.9776 
 204   0.0000       2.259329        61.4795 
 205   0.0000       2.266294        61.6690 
 206   0.0000       2.268427        61.7270 
 207   0.0000       2.320263        63.1376 
 208   0.0000       2.326565        63.3091 
 209   0.0000       2.341448        63.7140 
 210   0.0000       2.344680        63.8020 
 211   0.0000       2.345023        63.8113 
 212   0.0000       2.350626        63.9638 
 213   0.0000       2.455531        66.8184 
 214   0.0000       2.486441        67.6595 
 215   0.0000       2.492095        67.8133 
 216   0.0000       2.494343        67.8745 
 217   0.0000       2.527816        68.7854 
 218   0.0000       2.532031        68.9001 
 219   0.0000       2.545992        69.2800 
 220   0.0000       2.609123        70.9979 
 221   0.0000       2.620768        71.3147 
 222   0.0000       2.649575        72.0986 
 223   0.0000       2.668686        72.6186 
 224   0.0000       2.745810        74.7173 
 225   0.0000       2.746149        74.7265 
 226   0.0000       2.780545        75.6625 
 227   0.0000       2.793398        76.0122 
 228   0.0000       2.794102        76.0314 
 229   0.0000       2.804036        76.3017 
 230   0.0000       2.927718        79.6673 
 231   0.0000       2.927930        79.6730 
 232   0.0000       2.978984        81.0623 
 233   0.0000       2.991252        81.3961 
 234   0.0000       3.039635        82.7127 
 235   0.0000       3.057197        83.1906 
 236   0.0000       3.105830        84.5139 
 237   0.0000       3.108638        84.5903 
 238   0.0000       3.140567        85.4592 
 239   0.0000       3.160350        85.9975 
 240   0.0000       3.247517        88.3694 
 241   0.0000       3.284172        89.3669 
 242   0.0000       3.340740        90.9062 
 243   0.0000       3.712277       101.0162 
 244   0.0000       3.937812       107.1533 
 245   0.0000       3.952963       107.5656 


---------------------------------------------
CAS-SCF STATES FOR BLOCK  0 MULT= 1 NROOTS= 3
---------------------------------------------

ROOT   0:  E=    -536.0347071711 Eh
      0.98376 [     0]: 20
      0.01624 [     2]: 02
ROOT   1:  E=    -535.8606973426 Eh  4.735 eV  38190.7 cm**-1
      1.00000 [     1]: 11
ROOT   2:  E=    -535.7522647973 Eh  7.686 eV  61988.9 cm**-1
      0.98376 [     2]: 02
      0.01624 [     0]: 20


--------------
DENSITY MATRIX
--------------

                  0          1    
      0       1.000000  -0.000000
      1      -0.000000   1.000000
Trace of the electron density:  2.000000

-----------------
ENERGY COMPONENTS
-----------------

One electron energy          :  -2247.305109355 Eh      -61152.2809 eV
Two electron energy          :    943.745690066 Eh       25680.6258 eV
Nuclear repulsion energy     :    767.676862852 Eh       20889.5494 eV
                               ----------------
                                 -535.882556437

Kinetic energy               :    535.752118300 Eh       14578.5563 eV
Potential energy             :  -1071.634674737 Eh      -29160.6620 eV
Virial ratio                 :     -2.000243467 
                               ----------------
                                 -535.882556437

Core energy                  :   -535.326633775 Eh   -14566.9783 eV


----------------------------
LOEWDIN REDUCED ACTIVE MOs  
----------------------------

                     42        43        44        45        46        47   
                  -0.40651  -0.39847  -0.33242  -0.31644  -0.16855  -0.03191
                   2.00000   2.00000   2.00000   2.00000   1.00000   1.00000
                  --------  --------  --------  --------  --------  --------
 0 C  pz             13.8       1.5       4.0      10.6       5.2       5.2
 1 C  pz              3.1       8.2      15.3       0.0       7.5       7.5
 2 C  pz              2.8       7.1       3.9      12.3       1.4       1.3
 3 C  pz              2.8       7.1       3.9      12.3       1.4       1.3
 4 C  pz              3.1       8.2      15.3       0.0       7.5       7.5
 5 C  pz             13.8       1.5       4.0      10.6       5.2       5.2
 6 C  pz              7.7      13.7       0.0       0.0      16.7      14.6
 7 C  pz              2.8       7.1       3.9      12.3       1.4       1.3
 8 C  pz              7.7      13.7       0.0       0.0      16.7      14.6
 9 C  pz              2.8       7.1       3.9      12.3       1.4       1.3
10 C  pz              3.1       8.2      15.3       0.0       7.5       7.5
11 C  pz             13.8       1.5       4.0      10.6       5.2       5.2
12 C  pz             13.8       1.5       4.0      10.6       5.2       5.2
13 C  pz              3.1       8.2      15.3       0.0       7.5       7.5

------------------
MOLECULAR ORBITALS
------------------
                      0         1         2         3         4         5   
                 -11.25042 -11.25000 -11.24984 -11.24906 -11.24857 -11.24824
                   2.00000   2.00000   2.00000   2.00000   2.00000   2.00000
                  --------  --------  --------  --------  --------  --------
  0C   1s        -0.001484  0.001973 -0.002109 -0.003522 -0.001571 -0.003032
  0C   2s         0.000245 -0.000103 -0.000208 -0.000068  0.000022  0.000068
  0C   3s        -0.000854  0.000211  0.002954  0.000556 -0.000440 -0.001647
  0C   1pz        0.000000  0.000000  0.000000  0.000000 -0.000000 -0.000000
  0C   1px        0.000051 -0.000049  0.000038 -0.000014 -0.000016 -0.000042
  0C   1py        0.000020 -0.000022  0.000016 -0.000002 -0.000026 -0.000011
  0C   2pz        0.000000 -0.000000  0.000000  0.000000  0.000000 -0.000000
  0C   2px       -0.000196 -0.000003  0.001274  0.000171 -0.000100 -0.000850
  0C   2py       -0.000348  0.000165 -0.000427  0.000019 -0.000121  0.000201
  0C   1dz2       0.000046 -0.000028 -0.000041  0.000026  0.000014  0.000064
  0C   1dxz      -0.000000  0.000000  0.000000 -0.000000 -0.000000 -0.000000
  0C   1dyz       0.000000  0.000000 -0.000000 -0.000000 -0.000000  0.000000
  0C   1dx2y2    -0.000018  0.000011 -0.000042 -0.000021 -0.000002  0.000008
  0C   1dxy       0.000010 -0.000012  0.000030 -0.000009 -0.000005 -0.000031
  1C   1s        -0.030391  0.037300 -0.027599 -0.044317 -0.023882 -0.036602
  1C   2s         0.000228  0.000010  0.000149 -0.000262 -0.000195 -0.000435
  1C   3s        -0.001479  0.001127 -0.003458  0.000224  0.000668  0.003351
  1C   1pz        0.000000  0.000000 -0.000000  0.000000  0.000000  0.000000
  1C   1px        0.000036 -0.000003 -0.000015  0.000051  0.000060  0.000089
  1C   1py       -0.000026  0.000040  0.000001 -0.000026 -0.000023 -0.000039
  1C   2pz       -0.000000  0.000000 -0.000000  0.000000 -0.000000  0.000000
  1C   2px       -0.001346  0.000650  0.000491  0.000483 -0.000346  0.000075
  1C   2py        0.000382 -0.000351  0.002365  0.000714 -0.000333 -0.001135
  1C   1dz2      -0.000040  0.000100 -0.000041 -0.000187 -0.000117 -0.000212
  1C   1dxz       0.000000 -0.000000  0.000000  0.000000  0.000000  0.000000
  1C   1dyz      -0.000000  0.000000 -0.000000 -0.000000 -0.000000 -0.000000
  1C   1dx2y2    -0.000023  0.000011 -0.000000  0.000039 -0.000004  0.000032
  1C   1dxy      -0.000059  0.000081 -0.000056 -0.000066 -0.000047 -0.000054
  2C   1s        -0.435806  0.499355 -0.358546 -0.498975 -0.243464 -0.346969
  2C   2s        -0.003546  0.004613 -0.003588 -0.004957 -0.002524 -0.003739
  2C   3s         0.004430 -0.006528  0.007061  0.008641  0.004718  0.008663
  2C   1pz       -0.000000  0.000000 -0.000000 -0.000000 -0.000000 -0.000000
  2C   1px        0.000021  0.000118  0.000021 -0.000086 -0.000128 -0.000164
  2C   1py        0.000011  0.000024  0.000081  0.000092 -0.000047  0.000043
  2C   2pz        0.000000 -0.000000 -0.000000  0.000000  0.000000  0.000000
  2C   2px       -0.000688 -0.000441 -0.003904  0.000269  0.001803  0.005188
  2C   2py        0.000816 -0.001164 -0.004407 -0.003854  0.000537 -0.001227
  2C   1dz2      -0.000012 -0.000003  0.000034  0.000299  0.000192  0.000474
  2C   1dxz      -0.000000  0.000000 -0.000000 -0.000000 -0.000000 -0.000000
  2C   1dyz      -0.000000  0.000000  0.000000  0.000000 -0.000000  0.000000
  2C   1dx2y2    -0.000105  0.000109 -0.000120 -0.000021 -0.000104  0.000012
  2C   1dxy       0.000014  0.000005 -0.000019 -0.000032 -0.000050 -0.000045
  3C   1s        -0.435812  0.499354  0.358544  0.498970 -0.243484  0.346960
  3C   2s        -0.003546  0.004613  0.003588  0.004957 -0.002525  0.003739
  3C   3s         0.004430 -0.006528 -0.007061 -0.008641  0.004719 -0.008663
  3C   1pz        0.000000 -0.000000 -0.000000 -0.000000 -0.000000 -0.000000
  3C   1px        0.000021  0.000118 -0.000021  0.000086 -0.000128  0.000164
  3C   1py       -0.000011 -0.000024  0.000081  0.000092  0.000047  0.000043
  3C   2pz       -0.000000  0.000000  0.000000  0.000000 -0.000000  0.000000
  3C   2px       -0.000688 -0.000441  0.003904 -0.000269  0.001804 -0.005188
  3C   2py       -0.000816  0.001164 -0.004407 -0.003855 -0.000537 -0.001227
  3C   1dz2      -0.000012 -0.000003 -0.000034 -0.000299  0.000192 -0.000474
  3C   1dxz       0.000000 -0.000000 -0.000000  0.000000  0.000000  0.000000
  3C   1dyz      -0.000000  0.000000  0.000000  0.000000 -0.000000 -0.000000
  3C   1dx2y2    -0.000105  0.000109  0.000120  0.000021 -0.000104 -0.000012
  3C   1dxy      -0.000014 -0.000005 -0.000019 -0.000032  0.000050 -0.000045
  4C   1s        -0.030392  0.037300  0.027599  0.044317 -0.023884  0.036601
  4C   2s         0.000228  0.000010 -0.000149  0.000262 -0.000195  0.000435
  4C   3s        -0.001479  0.001127  0.003458 -0.000224  0.000669 -0.003351
  4C   1pz        0.000000 -0.000000 -0.000000  0.000000  0.000000 -0.000000
  4C   1px        0.000036 -0.000003  0.000015 -0.000051  0.000060 -0.000089
  4C   1py        0.000026 -0.000040  0.000001 -0.000026  0.000023 -0.000039
  4C   2pz       -0.000000 -0.000000 -0.000000 -0.000000 -0.000000 -0.000000
  4C   2px       -0.001346  0.000650 -0.000491 -0.000483 -0.000346 -0.000075
  4C   2py       -0.000382  0.000351  0.002365  0.000714  0.000334 -0.001135
  4C   1dz2      -0.000040  0.000100  0.000041  0.000187 -0.000117  0.000212
  4C   1dxz       0.000000 -0.000000  0.000000 -0.000000  0.000000 -0.000000
  4C   1dyz       0.000000 -0.000000 -0.000000 -0.000000  0.000000 -0.000000
  4C   1dx2y2    -0.000023  0.000011  0.000000 -0.000039 -0.000004 -0.000032
  4C   1dxy       0.000059 -0.000081 -0.000056 -0.000066  0.000047 -0.000054
  5C   1s        -0.001484  0.001973  0.002109  0.003522 -0.001571  0.003032
  5C   2s         0.000245 -0.000103  0.000208  0.000068  0.000022 -0.000068
  5C   3s        -0.000854  0.000211 -0.002954 -0.000556 -0.000441  0.001647
  5C   1pz        0.000000  0.000000 -0.000000  0.000000 -0.000000  0.000000
  5C   1px        0.000051 -0.000049 -0.000038  0.000014 -0.000016  0.000042
  5C   1py       -0.000020  0.000022  0.000016 -0.000002  0.000026 -0.000011
  5C   2pz       -0.000000 -0.000000 -0.000000 -0.000000 -0.000000  0.000000
  5C   2px       -0.000196 -0.000003 -0.001274 -0.000171 -0.000100  0.000850
  5C   2py        0.000348 -0.000165 -0.000427  0.000019  0.000121  0.000201
  5C   1dz2       0.000046 -0.000028  0.000041 -0.000026  0.000014 -0.000064
  5C   1dxz      -0.000000  0.000000 -0.000000  0.000000 -0.000000  0.000000
  5C   1dyz       0.000000 -0.000000  0.000000 -0.000000  0.000000 -0.000000
  5C   1dx2y2    -0.000018  0.000011  0.000042  0.000021 -0.000002 -0.000008
  5C   1dxy      -0.000010  0.000012  0.000030 -0.000009  0.000005 -0.000031
  6C   1s        -0.345339  0.000005 -0.492927  0.000001  0.618278  0.508754
  6C   2s        -0.002306  0.000000 -0.004588  0.000000  0.006123  0.005523
  6C   3s         0.000956 -0.000000  0.010230 -0.000000 -0.010441 -0.013733
  6C   1pz        0.000000 -0.000000  0.000000 -0.000000 -0.000000 -0.000000
  6C   1px        0.000000  0.000114  0.000000 -0.000145  0.000000 -0.000000
  6C   1py       -0.000104  0.000000 -0.000060  0.000000 -0.000012 -0.000035
  6C   2pz       -0.000000  0.000000 -0.000000 -0.000000  0.000000  0.000000
  6C   2px       -0.000000 -0.002353 -0.000000 -0.000705  0.000000 -0.000000
  6C   2py        0.000059  0.000000 -0.001049  0.000000  0.002227  0.004359
  6C   1dz2       0.000000  0.000000 -0.000083 -0.000000 -0.000422 -0.000491
  6C   1dxz      -0.000000 -0.000000  0.000000  0.000000 -0.000000  0.000000
  6C   1dyz       0.000000  0.000000  0.000000 -0.000000 -0.000000 -0.000000
  6C   1dx2y2    -0.000021 -0.000000  0.000080  0.000000 -0.000052  0.000020
  6C   1dxy       0.000000 -0.000114 -0.000000  0.000132 -0.000000 -0.000000
  7C   1s        -0.435806 -0.499347 -0.358555  0.498975 -0.243466 -0.346970
  7C   2s        -0.003546 -0.004613 -0.003588  0.004957 -0.002524 -0.003739
  7C   3s         0.004430  0.006528  0.007062 -0.008641  0.004718  0.008663
  7C   1pz       -0.000000 -0.000000 -0.000000 -0.000000 -0.000000 -0.000000
  7C   1px       -0.000021  0.000118 -0.000021 -0.000086  0.000128  0.000164
  7C   1py        0.000011 -0.000024  0.000081 -0.000092 -0.000047  0.000043
  7C   2pz        0.000000  0.000000 -0.000000  0.000000  0.000000  0.000000
  7C   2px        0.000688 -0.000441  0.003904  0.000269 -0.001803 -0.005188
  7C   2py        0.000816  0.001164 -0.004407  0.003854  0.000537 -0.001227
  7C   1dz2      -0.000012  0.000003  0.000034 -0.000299  0.000192  0.000474
  7C   1dxz      -0.000000 -0.000000  0.000000 -0.000000  0.000000  0.000000
  7C   1dyz      -0.000000 -0.000000  0.000000 -0.000000 -0.000000 -0.000000
  7C   1dx2y2    -0.000105 -0.000109 -0.000120  0.000021 -0.000104  0.000012
  7C   1dxy      -0.000014  0.000005  0.000019 -0.000032  0.000050  0.000045
  8C   1s        -0.345349 -0.000003  0.492923  0.000003  0.618298 -0.508727
  8C   2s        -0.002306 -0.000000  0.004588  0.000000  0.006123 -0.005523
  8C   3s         0.000956  0.000000 -0.010230 -0.000000 -0.010442  0.013733
  8C   1pz        0.000000  0.000000  0.000000 -0.000000 -0.000000 -0.000000
  8C   1px        0.000000  0.000114  0.000000  0.000145 -0.000000  0.000000
  8C   1py        0.000104  0.000000 -0.000060 -0.000000  0.000012 -0.000035
  8C   2pz        0.000000  0.000000 -0.000000 -0.000000  0.000000  0.000000
  8C   2px       -0.000000 -0.002353 -0.000000  0.000705 -0.000000 -0.000000
  8C   2py       -0.000059  0.000000 -0.001049 -0.000000 -0.002227  0.004359
  8C   1dz2       0.000000 -0.000000  0.000083 -0.000000 -0.000422  0.000490
  8C   1dxz       0.000000  0.000000  0.000000  0.000000 -0.000000  0.000000
  8C   1dyz       0.000000 -0.000000 -0.000000  0.000000  0.000000 -0.000000
  8C   1dx2y2    -0.000021  0.000000 -0.000080 -0.000000 -0.000052 -0.000020
  8C   1dxy       0.000000  0.000114  0.000000  0.000132 -0.000000  0.000000
  9C   1s        -0.435815 -0.499360  0.358536 -0.498970 -0.243481  0.346958
  9C   2s        -0.003546 -0.004613  0.003588 -0.004957 -0.002525  0.003739
  9C   3s         0.004430  0.006528 -0.007061  0.008641  0.004719 -0.008663
  9C   1pz        0.000000  0.000000 -0.000000  0.000000 -0.000000 -0.000000
  9C   1px       -0.000021  0.000118  0.000021  0.000086  0.000128 -0.000164
  9C   1py       -0.000011  0.000024  0.000081 -0.000092  0.000047  0.000043
  9C   2pz       -0.000000 -0.000000  0.000000  0.000000  0.000000 -0.000000
  9C   2px        0.000688 -0.000441 -0.003904 -0.000269 -0.001804  0.005188
  9C   2py       -0.000816 -0.001163 -0.004407  0.003855 -0.000537 -0.001227
  9C   1dz2      -0.000012  0.000003 -0.000034  0.000299  0.000192 -0.000474
  9C   1dxz       0.000000  0.000000 -0.000000  0.000000  0.000000 -0.000000
  9C   1dyz       0.000000 -0.000000  0.000000 -0.000000  0.000000  0.000000
  9C   1dx2y2    -0.000105 -0.000109  0.000120 -0.000021 -0.000104 -0.000012
  9C   1dxy       0.000014 -0.000005  0.000019 -0.000032 -0.000050  0.000045
 10C   1s        -0.030391 -0.037300 -0.027600  0.044317 -0.023882 -0.036602
 10C   2s         0.000228 -0.000010  0.000149  0.000262 -0.000195 -0.000435
 10C   3s        -0.001479 -0.001127 -0.003458 -0.000224  0.000668  0.003351
 10C   1pz        0.000000  0.000000 -0.000000  0.000000  0.000000  0.000000
 10C   1px       -0.000036 -0.000003  0.000015  0.000051 -0.000060 -0.000089
 10C   1py       -0.000026 -0.000040  0.000001  0.000026 -0.000023 -0.000039
 10C   2pz       -0.000000 -0.000000  0.000000 -0.000000 -0.000000 -0.000000
 10C   2px        0.001346  0.000650 -0.000491  0.000483  0.000346 -0.000075
 10C   2py        0.000382  0.000351  0.002365 -0.000714 -0.000333 -0.001135
 10C   1dz2      -0.000040 -0.000100 -0.000041  0.000187 -0.000117 -0.000212
 10C   1dxz      -0.000000 -0.000000  0.000000  0.000000 -0.000000 -0.000000
 10C   1dyz       0.000000 -0.000000 -0.000000  0.000000 -0.000000  0.000000
 10C   1dx2y2    -0.000023 -0.000011 -0.000000 -0.000039 -0.000004  0.000032
 10C   1dxy       0.000059  0.000081  0.000056 -0.000066  0.000047  0.000054
 11C   1s        -0.001484 -0.001973 -0.002109  0.003522 -0.001571 -0.003032
 11C   2s         0.000245  0.000103 -0.000208  0.000068  0.000022  0.000068
 11C   3s        -0.000854 -0.000211  0.002954 -0.000556 -0.000440 -0.001647
 11C   1pz        0.000000 -0.000000 -0.000000  0.000000 -0.000000 -0.000000
 11C   1px       -0.000051 -0.000049 -0.000038 -0.000014  0.000016  0.000042
 11C   1py        0.000020  0.000022  0.000016  0.000002 -0.000026 -0.000011
 11C   2pz       -0.000000  0.000000  0.000000 -0.000000 -0.000000 -0.000000
 11C   2px        0.000196 -0.000003 -0.001274  0.000171  0.000100  0.000850
 11C   2py       -0.000348 -0.000165 -0.000427 -0.000019 -0.000121  0.000201
 11C   1dz2       0.000046  0.000028 -0.000041 -0.000026  0.000014  0.000064
 11C   1dxz       0.000000  0.000000 -0.000000 -0.000000  0.000000  0.000000
 11C   1dyz      -0.000000 -0.000000  0.000000  0.000000 -0.000000 -0.000000
 11C   1dx2y2    -0.000018 -0.000011 -0.000042  0.000021 -0.000002  0.000008
 11C   1dxy      -0.000010 -0.000012 -0.000030 -0.000009  0.000005  0.000031
 12C   1s        -0.001484 -0.001973  0.002109 -0.003522 -0.001571  0.003032
 12C   2s         0.000245  0.000103  0.000208 -0.000068  0.000022 -0.000068
 12C   3s        -0.000854 -0.000211 -0.002954  0.000556 -0.000441  0.001647
 12C   1pz        0.000000  0.000000 -0.000000  0.000000 -0.000000  0.000000
 12C   1px       -0.000051 -0.000049  0.000038  0.000014  0.000016 -0.000042
 12C   1py       -0.000020 -0.000022  0.000016  0.000002  0.000026 -0.000011
 12C   2pz       -0.000000 -0.000000 -0.000000 -0.000000  0.000000  0.000000
 12C   2px        0.000196 -0.000003  0.001274 -0.000171  0.000100 -0.000850
 12C   2py        0.000348  0.000165 -0.000427 -0.000019  0.000121  0.000201
 12C   1dz2       0.000046  0.000028  0.000041  0.000026  0.000014 -0.000064
 12C   1dxz       0.000000  0.000000 -0.000000  0.000000  0.000000 -0.000000
 12C   1dyz      -0.000000 -0.000000 -0.000000 -0.000000 -0.000000  0.000000
 12C   1dx2y2    -0.000018 -0.000011  0.000042 -0.000021 -0.000002 -0.000008
 12C   1dxy       0.000010  0.000012 -0.000030 -0.000009 -0.000005  0.000031
 13C   1s        -0.030392 -0.037301  0.027599 -0.044317 -0.023884  0.036601
 13C   2s         0.000228 -0.000010 -0.000149 -0.000262 -0.000195  0.000435
 13C   3s        -0.001479 -0.001127  0.003458  0.000224  0.000669 -0.003351
 13C   1pz        0.000000 -0.000000  0.000000  0.000000  0.000000 -0.000000
 13C   1px       -0.000036 -0.000003 -0.000015 -0.000051 -0.000060  0.000089
 13C   1py        0.000026  0.000040  0.000001  0.000026  0.000023 -0.000039
 13C   2pz       -0.000000 -0.000000  0.000000  0.000000 -0.000000 -0.000000
 13C   2px        0.001346  0.000650  0.000491 -0.000483  0.000346  0.000075
 13C   2py       -0.000382 -0.000351  0.002365 -0.000714  0.000334 -0.001135
 13C   1dz2      -0.000040 -0.000100  0.000041 -0.000187 -0.000117  0.000212
 13C   1dxz      -0.000000 -0.000000  0.000000 -0.000000 -0.000000  0.000000
 13C   1dyz       0.000000  0.000000 -0.000000  0.000000  0.000000 -0.000000
 13C   1dx2y2    -0.000023 -0.000011  0.000000  0.000039 -0.000004 -0.000032
 13C   1dxy      -0.000059 -0.000081  0.000056 -0.000066 -0.000047  0.000054
 14H   1s         0.000110 -0.000060  0.000033 -0.000003  0.000037 -0.000019
 14H   2s        -0.000095  0.000030  0.000249  0.000023 -0.000012 -0.000168
 14H   1pz       -0.000000 -0.000000 -0.000000  0.000000 -0.000000  0.000000
 14H   1px        0.000001  0.000003 -0.000028  0.000001  0.000004  0.000025
 14H   1py        0.000003  0.000006  0.000002 -0.000007  0.000006 -0.000004
 15H   1s         0.000046  0.000035 -0.000182 -0.000162 -0.000042 -0.000078
 15H   2s        -0.000168  0.000080 -0.000497 -0.000223  0.000004  0.000209
 15H   1pz        0.000000  0.000000 -0.000000 -0.000000 -0.000000 -0.000000
 15H   1px        0.000051 -0.000022  0.000015 -0.000001 -0.000003 -0.000001
 15H   1py        0.000035 -0.000037 -0.000024  0.000030  0.000043  0.000062
 16H   1s         0.000046  0.000035  0.000182  0.000162 -0.000042  0.000078
 16H   2s        -0.000168  0.000080  0.000497  0.000223  0.000004 -0.000209
 16H   1pz        0.000000 -0.000000  0.000000  0.000000  0.000000 -0.000000
 16H   1px        0.000051 -0.000022 -0.000015  0.000001 -0.000003  0.000001
 16H   1py       -0.000035  0.000037 -0.000024  0.000030 -0.000043  0.000062
 17H   1s         0.000110 -0.000060 -0.000033  0.000003  0.000037  0.000019
 17H   2s        -0.000095  0.000030 -0.000249 -0.000023 -0.000012  0.000168
 17H   1pz        0.000000  0.000000  0.000000 -0.000000 -0.000000 -0.000000
 17H   1px        0.000001  0.000003  0.000028 -0.000001  0.000004 -0.000025
 17H   1py       -0.000003 -0.000006  0.000002 -0.000007 -0.000006 -0.000004
 18H   1s         0.000172  0.000000 -0.000014 -0.000000 -0.000533 -0.000570
 18H   2s        -0.000486  0.000000 -0.000512  0.000000  0.000530 -0.000118
 18H   1pz        0.000000 -0.000000  0.000000  0.000000 -0.000000 -0.000000
 18H   1px        0.000000  0.000069  0.000000 -0.000001  0.000000  0.000000
 18H   1py       -0.000063  0.000000 -0.000140  0.000000  0.000352  0.000284
 19H   1s         0.000172 -0.000000  0.000014 -0.000000 -0.000533  0.000570
 19H   2s        -0.000486 -0.000000  0.000512  0.000000  0.000530  0.000118
 19H   1pz       -0.000000  0.000000  0.000000  0.000000 -0.000000  0.000000
 19H   1px        0.000000  0.000069  0.000000  0.000001  0.000000  0.000000
 19H   1py        0.000063  0.000000 -0.000140 -0.000000 -0.000352  0.000284
 20H   1s         0.000046 -0.000035 -0.000182  0.000162 -0.000042 -0.000078
 20H   2s        -0.000168 -0.000080 -0.000497  0.000223  0.000004  0.000209
 20H   1pz        0.000000  0.000000 -0.000000  0.000000  0.000000  0.000000
 20H   1px       -0.000051 -0.000022 -0.000015 -0.000001  0.000003  0.000001
 20H   1py        0.000035  0.000037 -0.000024 -0.000030  0.000043  0.000062
 21H   1s         0.000110  0.000060  0.000033  0.000003  0.000037 -0.000019
 21H   2s        -0.000095 -0.000030  0.000249 -0.000023 -0.000012 -0.000168
 21H   1pz       -0.000000 -0.000000 -0.000000 -0.000000 -0.000000  0.000000
 21H   1px       -0.000001  0.000003  0.000028  0.000001 -0.000004 -0.000025
 21H   1py        0.000003 -0.000006  0.000002  0.000007  0.000006 -0.000004
 22H   1s         0.000110  0.000060 -0.000033 -0.000003  0.000037  0.000019
 22H   2s        -0.000095 -0.000030 -0.000249  0.000023 -0.000012  0.000168
 22H   1pz        0.000000  0.000000  0.000000  0.000000 -0.000000 -0.000000
 22H   1px       -0.000001  0.000003 -0.000028 -0.000001 -0.000004  0.000025
 22H   1py       -0.000003  0.000006  0.000002  0.000007 -0.000006 -0.000004
 23H   1s         0.000046 -0.000035  0.000182 -0.000162 -0.000042  0.000078
 23H   2s        -0.000168 -0.000080  0.000497 -0.000223  0.000004 -0.000209
 23H   1pz       -0.000000 -0.000000  0.000000 -0.000000 -0.000000  0.000000
 23H   1px       -0.000051 -0.000022  0.000015  0.000001  0.000003 -0.000001
 23H   1py       -0.000035 -0.000037 -0.000024 -0.000030 -0.000043  0.000062
                      6         7         8         9        10        11   
                 -11.24333 -11.24333 -11.24327 -11.24327 -11.24116 -11.24116
                   2.00000   2.00000   2.00000   2.00000   2.00000   2.00000
                  --------  --------  --------  --------  --------  --------
  0C   1s         0.156455 -0.154532 -0.107814 -0.106990 -0.513331 -0.435210
  0C   2s         0.000957 -0.000876 -0.000630 -0.000568 -0.004458 -0.003753
  0C   3s        -0.000341 -0.000172 -0.000747 -0.001628  0.005275  0.004433
  0C   1pz       -0.000000  0.000000  0.000000  0.000000 -0.000000 -0.000000
  0C   1px       -0.000058  0.000046  0.000040  0.000030 -0.000024 -0.000015
  0C   1py        0.000002 -0.000007  0.000017  0.000015 -0.000135 -0.000115
  0C   2pz        0.000000 -0.000000 -0.000000 -0.000000  0.000000  0.000000
  0C   2px        0.000433 -0.000548 -0.000996 -0.001528  0.000810  0.000664
  0C   2py       -0.000205  0.000032  0.000006 -0.000206  0.000477  0.000396
  0C   1dz2       0.000091 -0.000080 -0.000091 -0.000076  0.000173  0.000151
  0C   1dxz      -0.000000  0.000000  0.000000  0.000000 -0.000000 -0.000000
  0C   1dyz      -0.000000  0.000000 -0.000000 -0.000000  0.000000  0.000000
  0C   1dx2y2    -0.000014  0.000012  0.000006  0.000011 -0.000136 -0.000117
  0C   1dxy      -0.000057  0.000050 -0.000025 -0.000031  0.000017  0.000014
  1C   1s         0.477354 -0.471446 -0.489108 -0.485166  0.167863  0.142314
  1C   2s         0.004197 -0.004079 -0.004594 -0.004617  0.001889  0.001649
  1C   3s        -0.005445  0.005295  0.007564  0.009131 -0.003255 -0.002909
  1C   1pz       -0.000000  0.000000  0.000000  0.000000 -0.000000 -0.000000
  1C   1px       -0.000014  0.000032  0.000003  0.000029 -0.000073 -0.000060
  1C   1py        0.000074 -0.000059 -0.000037 -0.000033 -0.000025 -0.000024
  1C   2pz       -0.000000  0.000000  0.000000  0.000000  0.000000  0.000000
  1C   2px       -0.000725  0.000144  0.000774  0.000361  0.000922  0.000714
  1C   2py        0.000851 -0.000918 -0.001361 -0.002105  0.000745  0.000706
  1C   1dz2      -0.000239  0.000253  0.000214  0.000218 -0.000240 -0.000196
  1C   1dxz       0.000000 -0.000000 -0.000000 -0.000000  0.000000  0.000000
  1C   1dyz      -0.000000  0.000000  0.000000  0.000000 -0.000000 -0.000000
  1C   1dx2y2    -0.000042  0.000036  0.000053  0.000040 -0.000014 -0.000009
  1C   1dxy       0.000068 -0.000050 -0.000030 -0.000020  0.000015  0.000016
  2C   1s        -0.036544  0.037024  0.044390  0.044972 -0.010527 -0.009059
  2C   2s        -0.000547  0.000630  0.000505  0.000334 -0.000059  0.000025
  2C   3s         0.001324 -0.001038 -0.001850  0.001140  0.000358 -0.000035
  2C   1pz        0.000000 -0.000000 -0.000000 -0.000000 -0.000000 -0.000000
  2C   1px        0.000087 -0.000048 -0.000075 -0.000032 -0.000011 -0.000002
  2C   1py       -0.000009  0.000035 -0.000001  0.000020 -0.000024 -0.000027
  2C   2pz       -0.000000  0.000000  0.000000  0.000000  0.000000  0.000000
  2C   2px       -0.001522  0.001360  0.002375  0.005312  0.000182 -0.000129
  2C   2py        0.000005  0.000106 -0.001260 -0.001099  0.000001 -0.000093
  2C   1dz2       0.000117 -0.000127 -0.000242 -0.000323  0.000098  0.000099
  2C   1dxz      -0.000000  0.000000  0.000000  0.000000 -0.000000 -0.000000
  2C   1dyz       0.000000 -0.000000 -0.000000 -0.000000  0.000000  0.000000
  2C   1dx2y2    -0.000033  0.000043 -0.000044 -0.000044 -0.000055 -0.000055
  2C   1dxy       0.000020 -0.000020 -0.000055  0.000003  0.000048  0.000025
  3C   1s        -0.036555  0.037035 -0.044381 -0.044964 -0.010527 -0.009059
  3C   2s        -0.000547  0.000630 -0.000505 -0.000333 -0.000059  0.000025
  3C   3s         0.001324 -0.001038  0.001850 -0.001141  0.000358 -0.000035
  3C   1pz        0.000000 -0.000000  0.000000  0.000000 -0.000000 -0.000000
  3C   1px        0.000087 -0.000048  0.000075  0.000032 -0.000011 -0.000002
  3C   1py        0.000009 -0.000035 -0.000001  0.000020  0.000024  0.000027
  3C   2pz       -0.000000  0.000000 -0.000000 -0.000000 -0.000000 -0.000000
  3C   2px       -0.001522  0.001361 -0.002375 -0.005312  0.000182 -0.000129
  3C   2py       -0.000005 -0.000106 -0.001260 -0.001099 -0.000001  0.000093
  3C   1dz2       0.000117 -0.000127  0.000242  0.000322  0.000098  0.000099
  3C   1dxz       0.000000 -0.000000 -0.000000 -0.000000 -0.000000 -0.000000
  3C   1dyz       0.000000 -0.000000  0.000000  0.000000  0.000000  0.000000
  3C   1dx2y2    -0.000033  0.000043  0.000044  0.000044 -0.000055 -0.000055
  3C   1dxy      -0.000020  0.000020 -0.000055  0.000003 -0.000048 -0.000025
  4C   1s         0.477468 -0.471560  0.488996  0.485058  0.167861  0.142312
[...]
# Note that multiplicty blocks must be ordered in decending order e.g. mult 5,3,1! 

STATE   ROOT MULT  Energy/a.u.   MRCI SOC BLOCK INPUT (Eh)
   0:    0    1  -537.854657    EDIAG[0]   -537.854656840
   1:    1    1  -537.733710    EDIAG[1]   -537.733709716
   2:    2    1  -537.690144    EDIAG[2]   -537.690144263

-----------------------------
 NEVPT2 TRANSITION ENERGIES
------------------------------

LOWEST ROOT (ROOT 0, MULT 1) =   -537.854656840 Eh -14635.769 eV

STATE ROOT MULT  DE/a.u.     DE/eV    DE/cm**-1
   1:   1    1   0.120947     3.291  26544.8
   2:   2    1   0.164513     4.477  36106.3

--------------------------------------------
 NEVPT2 CORRECTION TO THE TRANSITION ENERGY
--------------------------------------------
STATE  ROOT MULT DE/a.u. DE/eV 	DE/cm**-1
   1:    1    1  -0.053063     -1.444 -11645.9

STATE  ROOT MULT DE/a.u. DE/eV 	DE/cm**-1
   2:    2    1  -0.117930     -3.209 -25882.6


--------------
TIMINGS NEVPT2
--------------

Sum of individual times        ...       93.2 sec (100.0%)

   Integraltransformation      ...       77.1 sec ( 82.7%)
   Building Fock and alike     ...        6.9 sec (  7.4%)
   Building D2,D1              ...        0.0 sec (  0.0%)
   Building D3                 ...        0.0 sec (  0.0%)
   Building D4                 ...        0.0 sec (  0.0%)
   All densities               ...        0.1 sec (  0.1%)
   Hole Densities              ...        0.0 sec (  0.0%)
   Re-Canonicalization         ...        9.1 sec (  9.8%)
   Classes Vijab               ...        0.0 sec (  0.0%)
   Class Viab                  ...        0.0 sec (  0.0%)
   Class Vab                   ...        0.0 sec (  0.0%)
   Class Vija                  ...        0.0 sec (  0.0%)
   Class Vij                   ...        0.0 sec (  0.0%)
   Class Via                   ...        0.0 sec (  0.0%)
   Class Va                    ...        0.0 sec (  0.0%)
   Class Vi                    ...        0.0 sec (  0.0%)
   All Classes                 ...        0.1 sec (  0.1%)

-------------------------------------------------------------
 Forming the transition densities       ... done in 0.0 sec
-------------------------------------------------------------

--------------
CASSCF TIMINGS
--------------

Total time                       ...      205.9 sec
Sum of individual times          ...      205.8 sec ( 99.9%)

Calculation of AO operators
   F(Core) operator              ...       17.9 sec (  8.7%)
   G(Act) operator               ...       13.8 sec (  6.7%)
Calculation of MO transformed quantities
   J(MO) operators               ...       80.6 sec ( 39.1%)
   AO->MO one electron integrals ...        0.0 sec (  0.0%)
Configuration interaction steps
   CI-setup phase                ...        0.0 sec (  0.0%)
   CI-solution phase             ...        0.1 sec (  0.1%)
   Generation of densities       ...        0.0 sec (  0.0%)
Orbital improvement steps
   Orbital gradient              ...        0.0 sec (  0.0%)
   O(1) converger                ...        0.1 sec (  0.1%)
CPCM steps
   Total CPCM time               ...        0.0 sec (  0.0%)
PT2 
   NEVPT2 time                   ...       93.2 sec ( 45.2%)
Properties                       ...        0.0 sec (  0.0%)
   SOC integral calculation      ...        0.0 sec (  0.0%)
   SSC RMEs (incl. integrals)    ...        0.0 sec (  0.0%)
   SOC RMEs                      ...        0.0 sec (  0.0%)

Maximum memory used throughout the entire CASSCF-calculation: 150.5 MB


           ************************************************************
           *        Program running with 8 parallel MPI-processes     *
           *              working on a common directory               *
           ************************************************************

------------------------------------------------------------------------------
                         ORCA PROPERTY INTEGRAL CALCULATIONS
------------------------------------------------------------------------------

GBWName                                   ... orca.gbw
Number of atoms                           ...     24
Number of basis functions                 ...    344
Max core memory                           ...   4096 MB

Dipole integrals                          ... YES
Quadrupole integrals                      ...  NO
Linear momentum integrals                 ...  NO
Angular momentum integrals                ... YES
Higher moments length integrals           ...  NO
Higher moments velocity integrals         ...  NO
Kinetic energy integrals                  ...  NO
GIAO right hand sides                     ...  NO
GIAO dipole derivative integrals          ...  NO
SOC integrals                             ...  NO
EPR diamagnetic integrals (GIAO)          ...  NO
EPR gauge integrals                       ...  NO
Field gradient integrals                  ...  NO (   0 nuclei)
Spin-dipole/Fermi contact integrals       ...  NO (   0 nuclei)
Contact density integrals                 ...  NO (   0 nuclei)
Nucleus-orbit integrals                   ...  NO (   0 nuclei)
Geometric perturbations                   ...  NO (  24 nuclei)

Choice of electric origin   ... Center of mass
Position of electric origin ... (  0.0000, -0.0000,  0.0000) 
Choice of magnetic origin   ... GIAO
Position of magnetic origin ... (  0.0000,  0.0000,  0.0000) 

Calculating integrals                     ... Electric Dipole (Length)     done (  0.0 sec)
Calculating integrals                     ... Angular Momentum  (ElOri)    done (  0.0 sec)

Property integrals calculated in   0.0 sec

Maximum memory used throughout the entire PROPINT-calculation: 20.0 MB


           ************************************************************
           *        Program running with 8 parallel MPI-processes     *
           *              working on a common directory               *
           ************************************************************
-------------------------------------------------------------------------------
                              ORCA-CASSCF
-------------------------------------------------------------------------------

Setting up the integral package     ... done

PROPERTIES-SETTINGS:
  QDPT diagonal energies            ... NEVPT2 energies 


==========================================
CASSCF UV, CD spectra and dipole moments
==========================================

----------------------------------------------------------------------------------------------------
                     ABSORPTION SPECTRUM VIA TRANSITION ELECTRIC DIPOLE MOMENTS    
----------------------------------------------------------------------------------------------------
     Transition      Energy     Energy  Wavelength fosc(D2)      D2        DX        DY        DZ   
                      (eV)      (cm-1)    (nm)                 (au**2)    (au)      (au)      (au)  
----------------------------------------------------------------------------------------------------
  0-1A  ->  1-1A    4.735048   38190.7   261.8   0.356803348   3.07572   0.00000   1.75377   0.00000
  0-1A  ->  2-1A    7.685648   61988.9   161.3   0.000000000   0.00000  -0.00000   0.00000  -0.00000

------------------------------------------------------------------------------------------
                     CD SPECTRUM VIA TRANSITION ELECTRIC DIPOLE MOMENTS    
------------------------------------------------------------------------------------------
     Transition      Energy     Energy  Wavelength    R        MX        MY        MZ   
                      (eV)      (cm-1)    (nm)   (1e40*cgs)   (au)      (au)      (au)  
------------------------------------------------------------------------------------------
  0-1A  ->  1-1A    4.735048   38190.7   261.8   -0.00005  -0.00000   0.00000   0.00000
  0-1A  ->  2-1A    7.685648   61988.9   161.3    0.00000   0.00000  -0.00000  -0.00000


=====================================================================
CASSCF (NEVPT2 diagonal energies) UV, CD spectra and dipole moments
=====================================================================

----------------------------------------------------------------------------------------------------
                     ABSORPTION SPECTRUM VIA TRANSITION ELECTRIC DIPOLE MOMENTS    
----------------------------------------------------------------------------------------------------
     Transition      Energy     Energy  Wavelength fosc(D2)      D2        DX        DY        DZ   
                      (eV)      (cm-1)    (nm)                 (au**2)    (au)      (au)      (au)  
----------------------------------------------------------------------------------------------------
  0-1A  ->  1-1A    3.291139   26544.8   376.7   0.247999432   3.07572   0.00000   1.75377   0.00000
  0-1A  ->  2-1A    4.476615   36106.3   277.0   0.000000000   0.00000  -0.00000   0.00000  -0.00000

------------------------------------------------------------------------------------------
                     CD SPECTRUM VIA TRANSITION ELECTRIC DIPOLE MOMENTS    
------------------------------------------------------------------------------------------
     Transition      Energy     Energy  Wavelength    R        MX        MY        MZ   
                      (eV)      (cm-1)    (nm)   (1e40*cgs)   (au)      (au)      (au)  
------------------------------------------------------------------------------------------
  0-1A  ->  1-1A    3.291139   26544.8   376.7   -0.00005  -0.00000   0.00000   0.00000
  0-1A  ->  2-1A    4.476615   36106.3   277.0    0.00000   0.00000  -0.00000  -0.00000

--------------
CASSCF TIMINGS
--------------

Total time                       ...        0.1 sec
Sum of individual times          ...        0.1 sec ( 84.5%)

Calculation of AO operators
Calculation of MO transformed quantities
Configuration interaction steps
   CI-setup phase                ...        0.1 sec ( 84.5%)
Orbital improvement steps

Maximum memory used throughout the entire CASSCF-calculation: 44.5 MB

-------------------------   --------------------
FINAL SINGLE POINT ENERGY      -537.759503606413
-------------------------   --------------------



           ************************************************************
           *        Program running with 8 parallel MPI-processes     *
           *              working on a common directory               *
           ************************************************************

------------------------------------------------------------------------------
                              ORCA PROPERTY CALCULATIONS
------------------------------------------------------------------------------

GBWName                                 ... orca.gbw
Number of atoms                         ...     24
Number of basis functions               ...    344
Max core memory                         ...   4096 MB

Electric properties:
Dipole moment                           ... YES
Quadrupole moment                       ...  NO
Static polarizability (Dipole/Dipole)   ...  NO
Static polarizability (Dipole/Quad.)    ...  NO
Static polarizability (Quad./Quad.)     ...  NO
Static polarizability (Velocity)        ...  NO
Static hyperpolarizability              ...  NO

Atomic electric properties:
Dipole moment                           ...  NO
Quadrupole moment                       ...  NO
Static polarizability                   ...  NO

Choice of electric origin               ... Center of mass
Position of electric origin             ...     0.000000    -0.000000     0.000000

General magnetic properties:
Magnetizability                         ...  NO

EPR properties:
g-Tensor (aka g-matrix)                 ...  NO
Zero-Field splitting spin-orbit         ...  NO
Zero-field splitting spin-spin          ...  NO
Hyperfine couplings                     ...  NO (   0 nuclei)
Quadrupole couplings                    ...  NO (   0 nuclei)
Contact density                         ...  NO (   0 nuclei)

NMR properties:
Chemical shifts                         ...  NO (   0 nuclei)
Spin-rotation constants                 ...  NO (   0 nuclei)
Spin-spin couplings                     ...  NO (   0 nuclei,    0 pairs)

Choice of magnetic origin               ... GIAO
Position of magnetic origin             ...     0.000000     0.000000     0.000000

Properties with geometric perturbations:
SCF Hessian                             ...  NO
IR spectrum                             ...  NO
VCD spectrum                            ...  NO
X-ray spectroscopy properties:
SCF XES/XAS/RIXS spectra                ...  NO

SCF SOC stabilization energy            ...  NO
Diagonal Born-Oppenheimer correction    ...  NO

-------------
DIPOLE MOMENT
-------------

Method             : CASSCF/ALL STATES AVERAGE
Type of density    : Electron Density
Level              : Unrelaxed density
State              :  -1
Multiplicity       :  -1
Irrep              :   0
Energy             :  -535.8825564369716403 Eh
Basis              : AO
                                X                 Y                 Z
Electronic contribution:      0.000000238      -0.000000117       0.000000853
Nuclear contribution   :     -0.000000204       0.000000161      -0.000001042
                        -----------------------------------------
Total Dipole Moment    :      0.000000034       0.000000044      -0.000000189
                        -----------------------------------------
Magnitude (a.u.)       :      0.000000197
Magnitude (Debye)      :      0.000000501



--------------------
Rotational spectrum 
--------------------
 
Rotational constants in cm-1:             0.071795             0.015152             0.012512 
Rotational constants in MHz :          2152.346410           454.247255           375.086252 

Dipole components along the rotational axes: 
x,y,z [a.u.] :     0.000000    -0.000000    -0.000000 
x,y,z [Debye]:     0.000000    -0.000000    -0.000000 

 

Dipole moment calculation done in   0.0 sec 

Maximum memory used throughout the entire PROP-calculation: 17.2 MB

--------------------------------
SUGGESTED CITATIONS FOR THIS RUN
--------------------------------

Below you find a list of papers that are relevant to this ORCA run
We neither can nor want to force you to cite these papers, but we appreciate if you do
You receive ORCA, which is the product of decades of hard work by many enthusiastic individuals, for free
The only thing we kindly ask in return is that you cite our papers,
We deeply appreciate it, if you show your appreciation for ORCA by not just citing the generic ORCA reference.

Please note that relegating all ORCA citations to the supporting information does *not* help us.
SI sections are not indexed - citations you put there will not count into any citation statistics
But we need these citations in order to attract the funding resources that allow us to do what we are doing

Therefore, if you are a happy ORCA user, please consider citing a few of the papers listed below in the main body of your paper

In addition to the list printed below, the program has created the file orca.bibtex that contains the list in bibtex format
You can import this file easily into all common literature databanks and citation aid programs

It goes without saying that in many instances, there are alternative algorithms to achieve similar
results as the ones you have gotten from ORCA. It is, of course, also the case that in some instances
ORCA just re-implements algorithms worked out by others. We are fully aware of that and we are also
fully appreciative of our colleagues work. Hence this citation list should not be read as indicating
that the listed papers, which are focused on our own work, are the only ones worth citing. It simply
meant to make it easier for users to cite ORCA specific papers. It is not a substitute for doing your
own literature research and citing the relevant literature in a scientifically appropriate manner.

List of essential papers. We consider these as the minimum necessary citations

  1. Neese, F.
     Software update: the ORCA program system, version 6.0
     WIRES Comput. Molec. Sci. 2025 15(1), e70019
     doi.org/10.1002/wcms.70019

List of papers to cite with high priority. The work reported in these papers was absolutely
necessary for this run to complete.
Our perspective: the developers of density functionals and basis sets usually get cited in chemistry papers
Good! But without the algorithms to do something with them, the functionals or basis sets would not do anything.
Hence, in our opinion, the algorithm design and method developments papers are equally worthy of getting cited

  1. Kollmar, C.; Sivalingam, K.; Helmich-Paris, B.; Angeli, C.; Neese, F.
     A perturbation-based super-CI approach for the orbital optimization of a CASSCF wave function
     J. Comput. Chem. 2019 40 , 1463-1470
     doi.org/10.1002/jcc.25801
  2. Guo, Y.; Sivalingam, K.; Neese, F.
     Approximations of density matrices in N-electron valence state second-order perturbation theory (NEVPT2). I. Revisiting the NEVPT2 construction
     J. Chem. Phys. 2021 154(21), 214111
     doi.org/10.1063/5.0051211
  3. Kollmar, C.; Sivalingam, K.; Guo, Y.; Neese, F.
     An efficient implementation of the NEVPT2 and CASPT2 methods avoiding higher-order density matrices
     J. Chem. Phys. 2021 155(23), 234104
     doi.org/10.1063/5.0072129
  4. Neese, F.
     The SHARK Integral Generation and Digestion System
     J. Comp. Chem. 2022 44(3), 381
     doi.org/10.1002/jcc.26942
  5. Ugandi, M.; Roemelt, M.
     A recursive formulation of one-electron coupling coefficients for spin-adapted configuration interaction calculations featuring many unpaired electrons
     Int. J. Quantum Chem. 2023 123 , e27045
     doi.org/10.1002/qua.27045

List of suggested additional citations. These are papers that are important in the 'surrounding' of 
of this run, or papers that preceded the highly important papers. If you like your results we are grateful for a citation.

  1. Neese, F.
     The ORCA program system
     WIRES Comput. Molec. Sci. 2012 2(1), 73-78
     doi.org/10.1002/wcms.81
  2. Schapiro, I.; Sivalingam, K.; Neese, F.
     Assessment of n-Electron Valence State Perturbation Theory for Vertical Excitation Energies
     J. Theo. Comp. Chem. 2013 9 , 3567-3580
     doi.org/10.1021/ct400136y
  3. Neese, F.
     Software update: the ORCA program system, version 4.0
     WIRES Comput. Molec. Sci. 2018 8(1), 1-6
     doi.org/10.1002/wcms.1327
  4. Neese, F.; Wennmohs, F.; Becker, U.; Riplinger, C.
     The ORCA quantum chemistry program package
     J. Chem. Phys. 2020 152(22), 224108
     doi.org/10.1063/5.0004608
  5. Guo, Y.; Sivalingam, K.; Kollmar, C.; Neese, F.
     Approximations of density matrices in N-electron valence state second-order perturbation theory (NEVPT2). II. The full rank NEVPT2 (FR-NEVPT2) formulation
     J. Chem. Phys. 2021 154(21), 214113
     doi.org/10.1063/5.0051218
  6. Neese, F.
     Software update: The ORCA program system—Version 5.0
     WIRES Comput. Molec. Sci. 2022 12(1), e1606
     doi.org/10.1002/wcms.1606

List of optional additional citations

  1. Neese, F.
     Approximate second-order SCF convergence for spin unrestricted wavefunctions
     Chem. Phys. Lett. 2000 325(1-3), 93-98
     doi.org/10.1016/s0009-2614(00)00662-x

Timings for individual modules:

Sum of individual times          ...      209.800 sec (=   3.497 min)
Startup calculation              ...        2.053 sec (=   0.034 min)   1.0 %
SCF iterations                   ...        0.384 sec (=   0.006 min)   0.2 %
CASSCF iterations                ...      206.691 sec (=   3.445 min)  98.5 %
Property integrals               ...        0.361 sec (=   0.006 min)   0.2 %
Property calculations            ...        0.311 sec (=   0.005 min)   0.1 %
                             ****ORCA TERMINATED NORMALLY****
TOTAL RUN TIME: 0 days 0 hours 3 minutes 30 seconds 131 msec
