
                                 *****************
                                 * O   R   C   A *
                                 *****************

                                            #,                                       
                                            ###                                      
                                            ####                                     
                                            #####                                    
                                            ######                                   
                                           ########,                                 
                                     ,,################,,,,,                         
                               ,,#################################,,                 
                          ,,##########################################,,             
                       ,#########################################, ''#####,          
                    ,#############################################,,   '####,        
                  ,##################################################,,,,####,       
                ,###########''''           ''''###############################       
              ,#####''   ,,,,##########,,,,          '''####'''          '####       
            ,##' ,,,,###########################,,,                        '##       
           ' ,,###''''                  '''############,,,                           
         ,,##''                                '''############,,,,        ,,,,,,###''
      ,#''                                            '''#######################'''  
     '                                                          ''''####''''         
             ,#######,   #######,   ,#######,      ##                                
            ,#'     '#,  ##    ##  ,#'     '#,    #''#        ,####,   ,####,        
            ##       ##  ##   ,#'  ##            #'  '#       #'       #'  '#        
            ##       ##  #######   ##           ,######,      #####,   #    #        
            '#,     ,#'  ##    ##  '#,     ,#' ,#      #,     #,   #   #,  ,#        
             '#######'   ##     ##  '#######'  #'      '#     '####' # '####'        



                #########################################################
                #                        -***-                          #
                #          Department of theory and spectroscopy        #
                #                                                       #
                #                      Frank Neese                      #
                #                                                       #
                #     Directorship, Architecture, Infrastructure        #
                #                    SHARK, DRIVERS                     #
                #        Core code/Algorithms in most modules           #
                #                                                       #
                #        Max Planck Institute fuer Kohlenforschung      #
                #                Kaiser Wilhelm Platz 1                 #
                #                 D-45470 Muelheim/Ruhr                 #
                #                      Germany                          #
                #                                                       #
                #                  All rights reserved                  #
                #                        -***-                          #
                #########################################################


                         Program Version 6.0.1  -  RELEASE   -


 With contributions from (in alphabetic order):
[Max-Planck-Institut fuer Kohlenforschung]                               
  Daniel Aravena         : Magnetic Suceptibility                        
  Michael Atanasov       : Ab Initio Ligand Field Theory (pilot matlab implementation)
  Alexander A. Auer      : GIAO ZORA, VPT2 properties, NMR spectrum      
  Ute Becker             : All parallelization in ORCA, NUMFREQ, NUMCALC 
  Giovanni Bistoni       : ED, misc. LED, open-shell LED, HFLD           
  Martin Brehm           : Molecular dynamics                            
  Dmytro Bykov           : pre 5.0 version of the SCF Hessian            
  Marcos Casanova-Páez   : Triplet and SCS-CIS(D). UHF-(DLPNO)-IP/EA/STEOM-CCSD. UHF-CVS-IP/STEOM-CCSD   
  Vijay G. Chilkuri      : MRCI spin determinant printing, contributions to CSF-ICE 
  Pauline Colinet        : FMM embedding                                 
  Dipayan Datta          : RHF DLPNO-CCSD density                        
  Achintya Kumar Dutta   : EOM-CC, STEOM-CC                              
  Nicolas Foglia         : Exact transition moments, OPA infrastructure, MCD improvements    
  Dmitry Ganyushin       : Spin-Orbit,Spin-Spin,Magnetic field MRCI      
  Miquel Garcia-Rates    : C-PCM and meta-GGA Hessian, CCSD/C-PCM, Gaussian charge scheme 
  Tiago L. C. Gouveia    : GS-ROHF, GS-ROCIS                             
  Yang Guo               : DLPNO-NEVPT2, F12-NEVPT2, CIM, IAO-localization        
  Andreas Hansen         : Spin unrestricted coupled pair/coupled cluster methods 
  Ingolf Harden          : AUTO-CI MPn and infrastructure                
  Benjamin Helmich-Paris : MC-RPA, TRAH-(SCF,CASSCF), AVAS, COSX integrals, SCF dyn. polar. 
  Lee Huntington         : MR-EOM, pCC                                   
  Robert Izsak           : Overlap fitted RIJCOSX, COSX-SCS-MP3, EOM     
  Riya Kayal             : Wick's Theorem for AUTO-CI, AUTO-CI UHF-CCSDT 
  Emily Kempfer          : AUTO-CI, RHF CISDT and CCSDT                  
  Christian Kollmar      : KDIIS, OOCD, Brueckner-CCSD(T), CCSD density, CASPT2, CASPT2-K, improved NEVPT2 
  Axel Koslowski         : Symmetry handling                             
  Simone Kossmann        : meta-GGA functionals, TD-DFT gradient, OOMP2, (MP2 Hessian; deprecated post 5.0) 
  Lucas Lang             : DCDCAS                                        
  Marvin Lechner         : AUTO-CI (C++ implementation), FIC-MRCC        
  Spencer Leger          : CASSCF response                               
  Dagmar Lenk            : GEPOL surface, SMD, ORCA-2-JSON               
  Dimitrios Liakos       : Extrapolation schemes; Compound Job, initial MDCI parallelization 
  Dimitrios Manganas     : Further ROCIS development; embedding schemes. LFT, Crystal Embedding 
  Dimitrios Pantazis     : SARC Basis sets                               
  Anastasios Papadopoulos: AUTO-CI, single reference methods and gradients 
  Taras Petrenko         : pre 6.0 DFT Hessian and TD-DFT gradient, (ASA, deprecated), ECA, 1-Electron XAS/XES, NRVS 
  Peter Pinski           : DLPNO-MP2, DLPNO-MP2 Gradient                 
  Christoph Reimann      : Effective Core Potentials                     
  Marius Retegan         : Local ZFS, SOC                                
  Christoph Riplinger    : Optimizer, TS searches, QM/MM, DLPNO-CCSD(T), (RO)-DLPNO pert. Triples 
  Michael Roemelt        : Original ROCIS implementation                 
  Masaaki Saitow         : Open-shell DLPNO-CCSD energy and density      
  Barbara Sandhoefer     : DKH picture change effects                    
  Kantharuban Sivalingam : CASSCF convergence/infrastructure, NEVPT2 and variants, FIC-MRCI 
  Bernardo de Souza      : ESD, SOC TD-DFT                               
  Georgi L. Stoychev     : AutoAux, RI-MP2 NMR, DLPNO-MP2 response, X2C  
  Van Anh Tran           : RI-MP2 g-tensors                              
  Willem Van den Heuvel  : Paramagnetic NMR                              
  Zikuan Wang            : NOTCH, Electric field optimization            
  Frank Wennmohs         : Technical directorship and infrastructure     
  Hang Xu                : AUTO-CI-Response properties                   
                                                                         
[FACCTs GmbH]                                                            
  Markus Bursch, Miquel Garcia-Rates, Christoph Riplinger, Bernardo de Souza, Georgi L. Stoychev 
                                                                 
  APM, Basis sets (HGBS, AHGBS, def-TZVP (Ac-Lr), def2-XVPD (La-Lu)), CI-OPT, improved COSX, DLPNO-Multilevel,           
  DOCKER, DRACO, updates on ESD, GOAT, IRC, LR-CPCM, MBIS, meta-GGA TD-DFT gradient, ML-optimized integration grids, 
  MM, NACMEs, nearIR, NEB, NEB-TS, NL-DFT gradient (VV10), 2- and 3-layer-ONIOM, interface openCOSMO-RS, QMMM,   
  Crystal-QMMM, SF, symmetry and pop. for TD-DFT, r2SCAN hybrids, SOLVATOR                                   
                                                                         
[Other institutions]                                                     
  V. Asgeirsson          : NEB                                           
  Christoph Bannwarth    : sTDA-DFT, sTD-DFT, PBEh-3c, B97-3c, D3        
  Sebastian Ehlert       : rSCAN, r2SCAN, r2SCAN-3c, D4, dhf basis sets  
  Marvin Friede          : D4 for Fr, Ra, Ac-Lr                          
  Lars Goerigk           : TD-DFT with DH, B97 family of functionals     
  Stefan Grimme          : VdW corrections, initial TS optimization, DFT functionals, gCP, sTDA/sTD-DF 
  Waldemar Hujo          : DFT-NL                                        
  H. Jonsson             : NEB                                           
  Holger Kruse           : gCP                                           
  Marcel Mueller         : wB97X-3c, vDZP basis set                      
  Hagen Neugebauer       : wr2SCAN                                       
  Tobias Risthaus        : range-separated hybrid DFT                    
  Lukas Wittmann         : regularized MP2, r2SCAN double-hybrids, wr2SCAN        
                                                                         
We gratefully acknowledge several colleagues who have allowed us to      
interface, adapt or use parts of their codes:                            
  Ed Valeev, F. Pavosevic, A. Kumar             : LibInt (2-el integral package), F12 methods 
  Garnet Chan, S. Sharma, J. Yang, R. Olivares  : DMRG                   
  Ulf Ekstrom                                   : XCFun DFT Library      
  Mihaly Kallay                                 : mrcc  (arbitrary order and MRCC methods)
  Frank Weinhold                                : gennbo (NPA and NBO analysis)           
  Simon Mueller                                 : openCOSMO-RS                            
  Christopher J. Cramer and Donald G. Truhlar   : smd solvation model                     
  S Lehtola, MJT Oliveira, MAL Marques          : LibXC Library                           
  Liviu Ungur et al                             : ANISO software                          


 Your calculation uses the libint2 library for the computation of 2-el integrals
 For citations please refer to: http://libint.valeyev.net

 Your ORCA version has been built with support for libXC version: 6.2.2
 For citations please refer to: https://libxc.gitlab.io

 This ORCA versions uses:
   CBLAS   interface :  Fast vector & matrix operations
   LAPACKE interface :  Fast linear algebra routines
   SCALAPACK package :  Parallel linear algebra routines
   Shared memory     :  Shared parallel matrices


Reading of a custom orbital basis requested
Basis file: /Users/johannes/Documents/Uni/BasisSets/cc-pvtz.bas
Basis read successfully!



***************************************
The coordinates will be read from file: anthracene_opt_MP2_cc-pvtz.xyz
***************************************


================================================================================

----- Orbital basis set information -----
Basis read from file: /Users/johannes/Documents/Uni/BasisSets/cc-pvtz.bas

================================================================================
                                        WARNINGS
                       Please study these warnings very carefully!
================================================================================


================================================================================
                                       INPUT FILE
================================================================================
NAME = orca.inp
|  1> ! PAL8 nopop tightscf printmos RHF
|  2> %basis
|  3> GTOName = "/Users/johannes/Documents/Uni/BasisSets/cc-pvtz.bas"
|  4> end
|  5> * xyzfile 0 1 anthracene_opt_MP2_cc-pvtz.xyz
|  6> 
|  7>                          ****END OF INPUT****
================================================================================

                       ****************************
                       * Single Point Calculation *
                       ****************************

---------------------------------
CARTESIAN COORDINATES (ANGSTROEM)
---------------------------------
  C     -3.648732    0.709060   -0.000000
  C     -2.465580    1.404281   -0.000000
  C     -1.219771    0.720035    0.000000
  C     -1.219771   -0.720035    0.000000
  C     -2.465580   -1.404281    0.000000
  C     -3.648732   -0.709060   -0.000000
  C      0.000000    1.403583    0.000000
  C      1.219771    0.720035    0.000000
  C     -0.000000   -1.403583    0.000000
  C      1.219771   -0.720035    0.000000
  C      2.465580    1.404281    0.000000
  C      3.648732    0.709060   -0.000000
  C      3.648732   -0.709060   -0.000000
  C      2.465580   -1.404281   -0.000000
  H     -4.588790    1.244069   -0.000000
  H     -2.464790    2.487506   -0.000000
  H     -2.464791   -2.487506    0.000000
  H     -4.588790   -1.244069   -0.000000
  H     -0.000000    2.488463    0.000000
  H     -0.000000   -2.488464    0.000000
  H      2.464790    2.487506    0.000000
  H      4.588790    1.244069   -0.000000
  H      4.588790   -1.244069   -0.000000
  H      2.464791   -2.487506   -0.000000

----------------------------
CARTESIAN COORDINATES (A.U.)
----------------------------
  NO LB      ZA    FRAG     MASS         X           Y           Z
   0 C     6.0000    0    12.011   -6.895104    1.339930   -0.000000
   1 C     6.0000    0    12.011   -4.659270    2.653706   -0.000000
   2 C     6.0000    0    12.011   -2.305033    1.360668    0.000000
   3 C     6.0000    0    12.011   -2.305033   -1.360668    0.000000
   4 C     6.0000    0    12.011   -4.659271   -2.653706    0.000000
   5 C     6.0000    0    12.011   -6.895104   -1.339930   -0.000000
   6 C     6.0000    0    12.011    0.000000    2.652387    0.000000
   7 C     6.0000    0    12.011    2.305033    1.360668    0.000000
   8 C     6.0000    0    12.011   -0.000000   -2.652387    0.000000
   9 C     6.0000    0    12.011    2.305033   -1.360668    0.000000
  10 C     6.0000    0    12.011    4.659270    2.653706    0.000000
  11 C     6.0000    0    12.011    6.895104    1.339930   -0.000000
  12 C     6.0000    0    12.011    6.895104   -1.339930   -0.000000
  13 C     6.0000    0    12.011    4.659270   -2.653706   -0.000000
  14 H     1.0000    0     1.008   -8.671556    2.350950   -0.000001
  15 H     1.0000    0     1.008   -4.657778    4.700705   -0.000000
  16 H     1.0000    0     1.008   -4.657779   -4.700705    0.000000
  17 H     1.0000    0     1.008   -8.671556   -2.350949   -0.000000
  18 H     1.0000    0     1.008   -0.000000    4.702514    0.000000
  19 H     1.0000    0     1.008   -0.000000   -4.702515    0.000000
  20 H     1.0000    0     1.008    4.657779    4.700705    0.000000
  21 H     1.0000    0     1.008    8.671556    2.350950   -0.000000
  22 H     1.0000    0     1.008    8.671556   -2.350949   -0.000001
  23 H     1.0000    0     1.008    4.657779   -4.700705   -0.000000

--------------------------------
INTERNAL COORDINATES (ANGSTROEM)
--------------------------------
 C      0   0   0     0.000000000000     0.00000000     0.00000000
 C      1   0   0     1.372290189387     0.00000000     0.00000000
 C      2   1   0     1.421348765267   120.78422288     0.00000000
 C      3   2   1     1.440069230931   118.77727512     0.00000000
 C      4   3   2     1.421348842316   118.77727976     0.00000000
 C      5   4   3     1.372290196873   120.78422317     0.00000000
 C      3   2   1     1.398241305006   121.95686301   179.99999628
 C      7   3   2     1.398241253967   121.46828920   180.00001046
 C      4   3   2     1.398241289156   119.26585033   179.99998972
 C      9   4   3     1.398241336399   121.46828848     0.00000000
 C      8   7   3     1.421348728911   121.95686667   179.99999565
 C     11   8   7     1.372290142441   120.78422052   180.00000616
 C     12  11   8     1.418120522733   120.43849882     0.00000000
 C     13  12  11     1.372290153369   120.43850337     0.00000000
 H      1   2   3     1.081639131033   119.91629625   180.00000308
 H      2   1   3     1.083225616243   120.48025174   179.99999548
 H      5   4   3     1.083225617345   118.73553262   180.00000000
 H      6   5   4     1.081639103834   119.91630177   179.99999609
 H      7   3   2     1.084880885552   119.26585030     0.00000000
 H      9   4   3     1.084880969255   119.26584984   180.00000579
 H     11   8   7     1.083225590483   118.73553266     0.00000000
 H     12  11   8     1.081639106920   119.91629903   179.99999829
 H     13  12  11     1.081639079467   119.64520131   179.99999759
 H     14  13  12     1.083225613510   120.48024439   180.00000000

---------------------------
INTERNAL COORDINATES (A.U.)
---------------------------
 C      0   0   0     0.000000000000     0.00000000     0.00000000
 C      1   0   0     2.593252634209     0.00000000     0.00000000
 C      2   1   0     2.685959907141   120.78422288     0.00000000
 C      3   2   1     2.721336460346   118.77727512     0.00000000
 C      4   3   2     2.685960052743   118.77727976     0.00000000
 C      5   4   3     2.593252648355   120.78422317     0.00000000
 C      3   2   1     2.642293135598   121.95686301   179.99999628
 C      7   3   2     2.642293039148   121.46828920   180.00001046
 C      4   3   2     2.642293105646   119.26585033   179.99998972
 C      9   4   3     2.642293194922   121.46828848     0.00000000
 C      8   7   3     2.685959838439   121.95686667   179.99999565
 C     11   8   7     2.593252545494   120.78422052   180.00000616
 C     12  11   8     2.679859412858   120.43849882     0.00000000
 C     13  12  11     2.593252566145   120.43850337     0.00000000
 H      1   2   3     2.044001733386   119.91629625   180.00000308
 H      2   1   3     2.046999755947   120.48025174   179.99999548
 H      5   4   3     2.046999758031   118.73553262   180.00000000
 H      6   5   4     2.044001681987   119.91630177   179.99999609
 H      7   3   2     2.050127761619   119.26585030     0.00000000
 H      9   4   3     2.050127919794   119.26584984   180.00000579
 H     11   8   7     2.046999707268   118.73553266     0.00000000
 H     12  11   8     2.044001687819   119.91629903   179.99999829
 H     13  12  11     2.044001635939   119.64520131   179.99999759
 H     14  13  12     2.046999750783   120.48024439   180.00000000

---------------------
BASIS SET INFORMATION
---------------------
There are 2 groups of distinct atoms

 Group   1 Type C   : 22s7p2d1f contracted to 4s3p2d1f pattern {101011/511/11/1}
 Group   2 Type H   : 7s2p1d contracted to 3s2p1d pattern {511/11/1}

Atom   0C    basis set group =>   1
Atom   1C    basis set group =>   1
Atom   2C    basis set group =>   1
Atom   3C    basis set group =>   1
Atom   4C    basis set group =>   1
Atom   5C    basis set group =>   1
Atom   6C    basis set group =>   1
Atom   7C    basis set group =>   1
Atom   8C    basis set group =>   1
Atom   9C    basis set group =>   1
Atom  10C    basis set group =>   1
Atom  11C    basis set group =>   1
Atom  12C    basis set group =>   1
Atom  13C    basis set group =>   1
Atom  14H    basis set group =>   2
Atom  15H    basis set group =>   2
Atom  16H    basis set group =>   2
Atom  17H    basis set group =>   2
Atom  18H    basis set group =>   2
Atom  19H    basis set group =>   2
Atom  20H    basis set group =>   2
Atom  21H    basis set group =>   2
Atom  22H    basis set group =>   2
Atom  23H    basis set group =>   2


           ************************************************************
           *        Program running with 8 parallel MPI-processes     *
           *              working on a common directory               *
           ************************************************************
------------------------------------------------------------------------------
                             ORCA STARTUP CALCULATIONS
------------------------------------------------------------------------------
------------------------------------------------------------------------------
                   ___                                                        
                  /   \      - P O W E R E D   B Y -                         
                 /     \                                                     
                 |  |  |   _    _      __       _____    __    __             
                 |  |  |  | |  | |    /  \     |  _  \  |  |  /  |          
                  \  \/   | |  | |   /    \    | | | |  |  | /  /          
                 / \  \   | |__| |  /  /\  \   | |_| |  |  |/  /          
                |  |  |   |  __  | /  /__\  \  |    /   |      \           
                |  |  |   | |  | | |   __   |  |    \   |  |\   \          
                \     /   | |  | | |  |  |  |  | |\  \  |  | \   \       
                 \___/    |_|  |_| |__|  |__|  |_| \__\ |__|  \__/        
                                                                              
                      - O R C A' S   B I G   F R I E N D -                    
                                      &                                       
                       - I N T E G R A L  F E E D E R -                       
                                                                              
 v1 FN, 2020, v2 2021, v3 2022-2024                                           
------------------------------------------------------------------------------


----------------------
SHARK INTEGRAL PACKAGE
----------------------

Number of atoms                             ...     24
Number of basis functions                   ...    672
Number of shells                            ...    312
Maximum angular momentum                    ...      3
Integral batch strategy                     ... SHARK/LIBINT Hybrid
RI-J (if used) integral strategy            ... SPLIT-RIJ (Revised 2003 algorithm where possible)
Printlevel                                  ...      1
Contraction scheme used                     ... PARTIAL GENERAL contraction
Prescreening option                         ... SCHWARTZ
   Thresh                                   ... 2.500e-11
   Tcut                                     ... 2.500e-12
   Tpresel                                  ... 2.500e-12 
Coulomb Range Separation                    ... NOT USED
Exchange Range Separation                   ... NOT USED
Multipole approximations                    ... NOT USED
Finite Nucleus Model                        ... NOT USED
CABS basis                                  ... NOT available
Auxiliary Coulomb fitting basis             ... NOT available
Auxiliary J/K fitting basis                 ... NOT available
Auxiliary Correlation fitting basis         ... NOT available
Auxiliary 'external' fitting basis          ... NOT available

Checking pre-screening integrals            ... done (  0.0 sec) Dimension = 312
Save PGC pre-screening integrals            ... done (  0.0 sec) Dimension = 312
Calculate PGC overlap integrals             ... done (  0.0 sec) Dimension = 200
Calculating pre-screening integrals (ORCA)  ... done (  0.1 sec) Dimension = 200
Check shell pair data                       ... done (  0.0 sec)
Shell pair information
Shell pair cut-off parameter TPreSel        ...   2.5e-12
Total number of shell pairs                 ...     48828
Shell pairs after pre-screening             ...     36109
Total number of primitive shell pairs       ...     83676
Primitive shell pairs kept                  ...     56808
          la=0 lb=0:  12844 shell pairs
          la=1 lb=0:  10238 shell pairs
          la=1 lb=1:   1792 shell pairs
          la=2 lb=0:   5374 shell pairs
          la=2 lb=1:   2016 shell pairs
          la=2 lb=2:    554 shell pairs
          la=3 lb=0:   2028 shell pairs
          la=3 lb=1:    748 shell pairs
          la=3 lb=2:    424 shell pairs
          la=3 lb=3:     91 shell pairs

Calculating one electron integrals          ... done (  0.0 sec)
Calculating Nuclear repulsion               ... done (  0.0 sec) ENN=    767.676862851775 Eh

Diagonalization of the overlap matrix:
Smallest eigenvalue                        ... 1.281e-05
Time for diagonalization                   ...    0.018 sec
Threshold for overlap eigenvalues          ... 1.000e-07
Number of eigenvalues below threshold      ... 0
Time for construction of square roots      ...    0.004 sec
Total time needed                          ...    0.023 sec

-------------------
DFT GRID GENERATION
-------------------

General Integration Accuracy     IntAcc      ... 4.388
Radial Grid Type                 RadialGrid  ... OptM3 with GC (2021)
Angular Grid (max. ang.)         AngularGrid ... 4 (Lebedev-302)
Angular grid pruning method      GridPruning ... 4 (adaptive)
Weight generation scheme         WeightScheme... mBecke (2022)
Basis function cutoff            BFCut       ... 1.0000e-11
Integration weight cutoff        WCut        ... 1.0000e-14
Partially contracted basis set               ... off
Rotationally invariant grid construction     ... off
Angular grids for H and He will be reduced by one unit

Total number of grid points                  ...   115566
Total number of batches                      ...     1818
Average number of points per batch           ...       63
Average number of grid points per atom       ...     4815

---------------------
SHARK GRID GENERATION
---------------------

General Integration Accuracy     IntAcc      ... 4.388
Radial Grid Type                 RadialGrid  ... OptM3 with GC (2021)
Angular Grid (max. ang.)         AngularGrid ... 4 (Lebedev-302)
Angular grid pruning method      GridPruning ... 4 (adaptive)
Weight generation scheme         WeightScheme... mBecke (2022)
Basis function cutoff            BFCut       ... 1.0000e-11
Integration weight cutoff        WCut        ... 1.0000e-14
Partially contracted basis set               ... off
Rotationally invariant grid construction     ... off
Angular grids for H and He will be reduced by one unit
Steep s-basis detected: some atoms will have their radial
                        grid points doubled.

Total number of grid points                  ...   199872
Total number of batches                      ...     3134
Average number of points per batch           ...       63
Average number of grid points per atom       ...     8328
Initializing property integral containers    ... done (  0.0 sec)

SHARK setup successfully completed in   2.1 seconds

Maximum memory used throughout the entire STARTUP-calculation: 75.0 MB


           ************************************************************
           *        Program running with 8 parallel MPI-processes     *
           *              working on a common directory               *
           ************************************************************
-------------------------------------------------------------------------------
                                 ORCA GUESS
                   Start orbitals & Density for SCF / CASSCF
-------------------------------------------------------------------------------

------------
SCF SETTINGS
------------
Hamiltonian:
 Ab initio Hamiltonian  Method          .... Hartree-Fock(GTOs)


General Settings:
 Integral files         IntName         .... orca
 Hartree-Fock type      HFTyp           .... RHF
 Total Charge           Charge          ....    0
 Multiplicity           Mult            ....    1
 Number of Electrons    NEL             ....   94
 Basis Dimension        Dim             ....  560
 Nuclear Repulsion      ENuc            ....    767.6768628518 Eh

Convergence Acceleration:
 AO-DIIS                CNVDIIS         .... on
   Start iteration      DIISMaxIt       ....    12
   Startup error        DIISStart       ....  0.200000
   # of expansion vecs  DIISMaxEq       ....     5
   Bias factor          DIISBfac        ....   1.050
   Max. coefficient     DIISMaxC        ....  10.000
 MO-DIIS                CNVKDIIS        .... off
 Trust-Rad. Augm. Hess. CNVTRAH         .... auto
   Auto Start mean grad. ratio tolernc. ....  1.125000
   Auto Start start iteration           ....    50
   Auto Start num. interpolation iter.  ....    10
   Max. Number of Micro iterations      ....    24
   Max. Number of Macro iterations      .... Maxiter - #DIIS iter
   Number of Davidson start vectors     ....     2
   Converg. threshold    (grad. norm)   ....   1.000e-05
   Grad. Scal. Fac. for Micro threshold ....   0.100
   Minimum threshold for Micro iter.    ....   1.000e-02
   NR start threshold (gradient norm)   ....   1.000e-04
   Initial trust radius                 ....   0.400
   Minimum AH scaling param. (alpha)    ....   1.000
   Maximum AH scaling param. (alpha)    .... 1000.000
   Quad. conv. algorithm                .... NR
   White noise on init. David. guess    .... on
   Maximum white noise                  ....   0.010
   Pseudo random numbers                .... off
   Inactive MOs                         .... canonical
   Orbital update algorithm             .... Taylor
   Preconditioner                       .... Diag
   Full preconditioner red. dimension   ....   250
 SOSCF                  CNVSOSCF        .... on
   Start iteration      SOSCFMaxIt      ....   150
   Startup grad/error   SOSCFStart      ....  0.003300
   Hessian update       SOSCFHessUp     .... L-BFGS
 Level Shifting         CNVShift        .... on
   Level shift para.    LevelShift      ....    0.2500
   Turn off err/grad.   ShiftErr        ....    0.0010
 Zerner damping         CNVZerner       .... off
 Static damping         CNVDamp         .... on
   Fraction old density DampFac         ....    0.7000
   Max. Damping (<1)    DampMax         ....    0.9800
   Min. Damping (>=0)   DampMin         ....    0.0000
   Turn off err/grad.   DampErr         ....    0.1000

SCF Procedure:
 Maximum # iterations   MaxIter         ....   125
 SCF integral mode      SCFMode         .... Direct
   Integral package                     .... SHARK and LIBINT hybrid scheme
 Reset frequency        DirectResetFreq ....    20
 Integral Threshold     Thresh          ....  2.500e-11 Eh
 Primitive CutOff       TCut            ....  2.500e-12 Eh

Convergence Tolerance:
 Convergence Check Mode ConvCheckMode   .... Total+1el-Energy
 Convergence forced     ConvForced      .... 0
 Energy Change          TolE            ....  1.000e-08 Eh
 1-El. energy change                    ....  1.000e-05 Eh
 Orbital Gradient       TolG            ....  1.000e-05
 Orbital Rotation angle TolX            ....  1.000e-05
 DIIS Error             TolErr          ....  5.000e-07

------------------------------
INITIAL GUESS: MODEL POTENTIAL
------------------------------
Loading Hartree-Fock densities                     ... done
Calculating cut-offs                               ... done
Initializing the effective Hamiltonian             ... done
Setting up the integral package (SHARK)            ... done
Starting the Coulomb interaction                   ... done (   0.1 sec)
Making the grid                                    ... done (   0.2 sec)
Mapping shells                                     ... done
Starting the XC term evaluation                    ... done (   0.1 sec)
Transforming the Hamiltonian                       ... done (   0.0 sec)
Diagonalizing the Hamiltonian                      ... done (   0.0 sec)
Back transforming the eigenvectors                 ... done (   0.0 sec)
Now organizing SCF variables                       ... done
                      ------------------
                      INITIAL GUESS DONE (   0.4 sec)
                      ------------------
             **** ENERGY FILE WAS UPDATED (orca.en.tmp) ****
Finished Guess after   0.7 sec
Maximum memory used throughout the entire GUESS-calculation: 46.3 MB


           ************************************************************
           *        Program running with 8 parallel MPI-processes     *
           *              working on a common directory               *
           ************************************************************

-------------------------------------------------------------------------------------------
                                      ORCA LEAN-SCF
                              memory conserving SCF solver
-------------------------------------------------------------------------------------------

----------------------------------------D-I-I-S--------------------------------------------
Iteration    Energy (Eh)           Delta-E    RMSDP     MaxDP     DIISErr   Damp  Time(sec)
-------------------------------------------------------------------------------------------
               ***  Starting incremental Fock matrix formation  ***
    1    -535.6261695269643042     0.00e+00  2.49e-03  1.20e-01  1.64e-01  0.700  22.7
    2    -535.8025637846228619    -1.76e-01  1.91e-03  9.12e-02  1.22e-01  0.700  21.3
                               ***Turning on AO-DIIS***
    3    -535.9164501759667019    -1.14e-01  1.20e-03  5.57e-02  9.00e-02  0.700  21.0
    4    -535.9914141066071807    -7.50e-02  2.79e-03  1.24e-01  6.42e-02  0.000  20.8
    5    -536.1618589774961947    -1.70e-01  1.84e-04  7.20e-03  5.04e-03  0.000  21.5
                              *** Initializing SOSCF ***
---------------------------------------S-O-S-C-F--------------------------------------
Iteration    Energy (Eh)           Delta-E    RMSDP     MaxDP     MaxGrad    Time(sec)
--------------------------------------------------------------------------------------
    6    -536.1623946826759948    -5.36e-04  8.75e-05  3.60e-03  2.06e-03    19.5
               *** Restarting incremental Fock matrix formation ***
    7    -536.1625384926071547    -1.44e-04  4.86e-05  2.72e-03  1.61e-03    22.6
    8    -536.1625927261943616    -5.42e-05  5.32e-05  3.73e-03  9.10e-04    17.9
    9    -536.1626162594066045    -2.35e-05  1.47e-05  6.61e-04  1.56e-04    17.9
   10    -536.1626176536576622    -1.39e-06  3.24e-06  1.54e-04  3.26e-05    16.6
   11    -536.1626177235043542    -6.98e-08  1.10e-06  4.63e-05  6.93e-06    14.9
   12    -536.1626177233913495     1.13e-10  1.67e-07  9.13e-06  3.10e-06    13.6
                 **** Energy Check signals convergence ****

               *****************************************************
               *                     SUCCESS                       *
               *           SCF CONVERGED AFTER  12 CYCLES          *
               *****************************************************

             **** ENERGY FILE WAS UPDATED (orca.en.tmp) ****

----------------
TOTAL SCF ENERGY
----------------

Total Energy       :       -536.16261772339135 Eh          -14589.72656 eV

Components:
Nuclear Repulsion  :        767.67686285177456 Eh           20889.54944 eV
Electronic Energy  :      -1303.83948057516591 Eh          -35479.27600 eV
One Electron Energy:      -2247.89745569229171 Eh          -61168.39951 eV
Two Electron Energy:        944.05797511712581 Eh           25689.12351 eV

Virial components:
Potential Energy   :      -1071.61909060444350 Eh          -29160.23793 eV
Kinetic Energy     :        535.45647288105215 Eh           14570.51138 eV
Virial Ratio       :          2.00131877169873

---------------
SCF CONVERGENCE
---------------

  Last Energy change         ...   -1.1300e-10  Tolerance :   1.0000e-08
  Last MAX-Density change    ...    9.1335e-06  Tolerance :   1.0000e-07
  Last RMS-Density change    ...    1.6672e-07  Tolerance :   5.0000e-09
  Last DIIS Error            ...    2.0631e-03  Tolerance :   5.0000e-07
  Last Orbital Gradient      ...    3.1043e-06  Tolerance :   1.0000e-05
  Last Orbital Rotation      ...    8.0868e-06  Tolerance :   1.0000e-05


----------------
ORBITAL ENERGIES
----------------

  NO   OCC          E(Eh)            E(eV) 
   0   2.0000     -11.244821      -305.9871 
   1   2.0000     -11.244755      -305.9853 
   2   2.0000     -11.243888      -305.9618 
   3   2.0000     -11.243775      -305.9587 
   4   2.0000     -11.237242      -305.7809 
   5   2.0000     -11.237240      -305.7809 
   6   2.0000     -11.237033      -305.7752 
   7   2.0000     -11.237022      -305.7749 
   8   2.0000     -11.236741      -305.7673 
   9   2.0000     -11.236732      -305.7670 
  10   2.0000     -11.235650      -305.7376 
  11   2.0000     -11.235649      -305.7375 
  12   2.0000     -11.234905      -305.7173 
  13   2.0000     -11.234904      -305.7173 
  14   2.0000      -1.186369       -32.2827 
  15   2.0000      -1.146645       -31.2018 
  16   2.0000      -1.083549       -29.4849 
  17   2.0000      -1.064826       -28.9754 
  18   2.0000      -1.022682       -27.8286 
  19   2.0000      -1.005998       -27.3746 
  20   2.0000      -0.959251       -26.1025 
  21   2.0000      -0.880211       -23.9518 
  22   2.0000      -0.842348       -22.9215 
  23   2.0000      -0.816018       -22.2050 
  24   2.0000      -0.809913       -22.0388 
  25   2.0000      -0.745452       -20.2848 
  26   2.0000      -0.709679       -19.3113 
  27   2.0000      -0.687548       -18.7091 
  28   2.0000      -0.648710       -17.6523 
  29   2.0000      -0.640049       -17.4166 
  30   2.0000      -0.627849       -17.0847 
  31   2.0000      -0.617756       -16.8100 
  32   2.0000      -0.591228       -16.0881 
  33   2.0000      -0.579769       -15.7763 
  34   2.0000      -0.571652       -15.5554 
  35   2.0000      -0.549291       -14.9470 
  36   2.0000      -0.546242       -14.8640 
  37   2.0000      -0.536639       -14.6027 
  38   2.0000      -0.498095       -13.5538 
  39   2.0000      -0.493967       -13.4415 
  40   2.0000      -0.484874       -13.1941 
  41   2.0000      -0.472644       -12.8613 
  42   2.0000      -0.412644       -11.2286 
  43   2.0000      -0.406579       -11.0636 
  44   2.0000      -0.346387        -9.4257 
  45   2.0000      -0.309890        -8.4325 
  46   2.0000      -0.255643        -6.9564 
  47   0.0000       0.051383         1.3982 
  48   0.0000       0.105487         2.8704 
  49   0.0000       0.141191         3.8420 
  50   0.0000       0.145339         3.9549 
  51   0.0000       0.146485         3.9861 
  52   0.0000       0.151615         4.1257 
  53   0.0000       0.170839         4.6488 
  54   0.0000       0.171400         4.6640 
  55   0.0000       0.171649         4.6708 
  56   0.0000       0.193633         5.2690 
  57   0.0000       0.196800         5.3552 
  58   0.0000       0.209989         5.7141 
  59   0.0000       0.221780         6.0349 
  60   0.0000       0.241678         6.5764 
  61   0.0000       0.263490         7.1699 
  62   0.0000       0.323146         8.7933 
  63   0.0000       0.330541         8.9945 
  64   0.0000       0.333201         9.0669 
  65   0.0000       0.336428         9.1547 
  66   0.0000       0.371582        10.1113 
  67   0.0000       0.384635        10.4664 
  68   0.0000       0.386935        10.5290 
  69   0.0000       0.392282        10.6745 
  70   0.0000       0.407948        11.1008 
  71   0.0000       0.420963        11.4550 
  72   0.0000       0.423228        11.5166 
  73   0.0000       0.425801        11.5866 
  74   0.0000       0.430513        11.7149 
  75   0.0000       0.436661        11.8822 
  76   0.0000       0.460923        12.5424 
  77   0.0000       0.466117        12.6837 
  78   0.0000       0.468134        12.7386 
  79   0.0000       0.469947        12.7879 
  80   0.0000       0.478736        13.0271 
  81   0.0000       0.482074        13.1179 
  82   0.0000       0.496621        13.5137 
  83   0.0000       0.498027        13.5520 
  84   0.0000       0.509022        13.8512 
  85   0.0000       0.514438        13.9986 
  86   0.0000       0.520933        14.1753 
  87   0.0000       0.523331        14.2406 
  88   0.0000       0.534317        14.5395 
  89   0.0000       0.536970        14.6117 
  90   0.0000       0.544561        14.8183 
  91   0.0000       0.546580        14.8732 
  92   0.0000       0.550455        14.9786 
  93   0.0000       0.560217        15.2443 
  94   0.0000       0.582480        15.8501 
  95   0.0000       0.584995        15.9185 
  96   0.0000       0.587384        15.9835 
  97   0.0000       0.592857        16.1325 
  98   0.0000       0.596086        16.2203 
  99   0.0000       0.597196        16.2505 
 100   0.0000       0.604628        16.4528 
 101   0.0000       0.606076        16.4922 
 102   0.0000       0.608971        16.5710 
 103   0.0000       0.617327        16.7983 
 104   0.0000       0.632700        17.2166 
 105   0.0000       0.641487        17.4557 
 106   0.0000       0.643891        17.5212 
 107   0.0000       0.643894        17.5212 
 108   0.0000       0.651551        17.7296 
 109   0.0000       0.659731        17.9522 
 110   0.0000       0.662455        18.0263 
 111   0.0000       0.665299        18.1037 
 112   0.0000       0.702490        19.1157 
 113   0.0000       0.702825        19.1248 
 114   0.0000       0.707395        19.2492 
 115   0.0000       0.714425        19.4405 
 116   0.0000       0.720993        19.6192 
 117   0.0000       0.738452        20.0943 
 118   0.0000       0.739054        20.1107 
 119   0.0000       0.753822        20.5125 
 120   0.0000       0.761441        20.7199 
 121   0.0000       0.765592        20.8328 
 122   0.0000       0.779682        21.2162 
 123   0.0000       0.807679        21.9781 
 124   0.0000       0.818325        22.2677 
 125   0.0000       0.827724        22.5235 
 126   0.0000       0.829879        22.5822 
 127   0.0000       0.863771        23.5044 
 128   0.0000       0.866659        23.5830 
 129   0.0000       0.878004        23.8917 
 130   0.0000       0.888807        24.1857 
 131   0.0000       0.889486        24.2041 
 132   0.0000       0.891781        24.2666 
 133   0.0000       0.912191        24.8220 
 134   0.0000       0.931743        25.3540 
 135   0.0000       0.932553        25.3761 
 136   0.0000       0.933458        25.4007 
 137   0.0000       0.934323        25.4242 
 138   0.0000       0.947832        25.7918 
 139   0.0000       0.964723        26.2515 
 140   0.0000       0.976561        26.5736 
 141   0.0000       0.993491        27.0343 
 142   0.0000       0.996700        27.1216 
 143   0.0000       1.008306        27.4374 
 144   0.0000       1.009768        27.4772 
 145   0.0000       1.024460        27.8770 
 146   0.0000       1.029158        28.0048 
 147   0.0000       1.036672        28.2093 
 148   0.0000       1.048530        28.5320 
 149   0.0000       1.051298        28.6073 
 150   0.0000       1.056611        28.7519 
 151   0.0000       1.058279        28.7972 
 152   0.0000       1.060589        28.8601 
 153   0.0000       1.078136        29.3376 
 154   0.0000       1.078477        29.3469 
 155   0.0000       1.098063        29.8798 
 156   0.0000       1.104426        30.0530 
 157   0.0000       1.139183        30.9987 
 158   0.0000       1.139322        31.0025 
 159   0.0000       1.141361        31.0580 
 160   0.0000       1.152138        31.3513 
 161   0.0000       1.158006        31.5110 
 162   0.0000       1.166666        31.7466 
 163   0.0000       1.170616        31.8541 
 164   0.0000       1.196561        32.5601 
 165   0.0000       1.200833        32.6763 
 166   0.0000       1.217353        33.1259 
 167   0.0000       1.220277        33.2054 
 168   0.0000       1.233595        33.5678 
 169   0.0000       1.235074        33.6081 
 170   0.0000       1.236701        33.6523 
 171   0.0000       1.252989        34.0956 
 172   0.0000       1.272101        34.6156 
 173   0.0000       1.274918        34.6923 
 174   0.0000       1.277376        34.7592 
 175   0.0000       1.287974        35.0476 
 176   0.0000       1.300792        35.3964 
 177   0.0000       1.338965        36.4351 
 178   0.0000       1.344257        36.5791 
 179   0.0000       1.371741        37.3270 
 180   0.0000       1.378774        37.5184 
 181   0.0000       1.381489        37.5922 
 182   0.0000       1.382558        37.6213 
 183   0.0000       1.400330        38.1049 
 184   0.0000       1.413114        38.4528 
 185   0.0000       1.442116        39.2420 
 186   0.0000       1.442980        39.2655 
 187   0.0000       1.446469        39.3604 
 188   0.0000       1.450277        39.4641 
 189   0.0000       1.464103        39.8403 
 190   0.0000       1.474420        40.1210 
 191   0.0000       1.494379        40.6641 
 192   0.0000       1.504060        40.9275 
 193   0.0000       1.508717        41.0543 
 194   0.0000       1.517940        41.3052 
 195   0.0000       1.528485        41.5922 
 196   0.0000       1.530089        41.6358 
 197   0.0000       1.550298        42.1858 
 198   0.0000       1.564682        42.5772 
 199   0.0000       1.566538        42.6277 
 200   0.0000       1.573401        42.8144 
 201   0.0000       1.581015        43.0216 
 202   0.0000       1.584020        43.1034 
 203   0.0000       1.605345        43.6837 
 204   0.0000       1.607425        43.7403 
 205   0.0000       1.611524        43.8518 
 206   0.0000       1.614509        43.9330 
 207   0.0000       1.631357        44.3915 
 208   0.0000       1.633960        44.4623 
 209   0.0000       1.647675        44.8355 
 210   0.0000       1.671696        45.4892 
 211   0.0000       1.672109        45.5004 
 212   0.0000       1.675444        45.5912 
 213   0.0000       1.675447        45.5912 
 214   0.0000       1.683354        45.8064 
 215   0.0000       1.701687        46.3052 
 216   0.0000       1.706309        46.4310 
 217   0.0000       1.757965        47.8367 
 218   0.0000       1.763907        47.9984 
 219   0.0000       1.792862        48.7862 
 220   0.0000       1.802769        49.0558 
 221   0.0000       1.807231        49.1773 
 222   0.0000       1.841652        50.1139 
 223   0.0000       1.857553        50.5466 
 224   0.0000       1.862177        50.6724 
 225   0.0000       1.934682        52.6454 
 226   0.0000       1.960853        53.3575 
 227   0.0000       1.966495        53.5110 
 228   0.0000       1.982182        53.9379 
 229   0.0000       2.026380        55.1406 
 230   0.0000       2.046621        55.6914 
 231   0.0000       2.055718        55.9389 
 232   0.0000       2.059676        56.0466 
 233   0.0000       2.063129        56.1406 
 234   0.0000       2.110128        57.4195 
 235   0.0000       2.170212        59.0545 
 236   0.0000       2.195785        59.7503 
 237   0.0000       2.209747        60.1303 
 238   0.0000       2.210869        60.1608 
 239   0.0000       2.228668        60.6451 
 240   0.0000       2.312096        62.9153 
 241   0.0000       2.339822        63.6698 
 242   0.0000       2.340460        63.6872 
 243   0.0000       2.360322        64.2276 
 244   0.0000       2.363255        64.3074 
 245   0.0000       2.374534        64.6143 
 246   0.0000       2.396216        65.2043 
 247   0.0000       2.423191        65.9384 
 248   0.0000       2.441247        66.4297 
 249   0.0000       2.451016        66.6955 
 250   0.0000       2.452889        66.7465 
 251   0.0000       2.474490        67.3343 
 252   0.0000       2.489852        67.7523 
 253   0.0000       2.532555        68.9143 
 254   0.0000       2.533702        68.9455 
 255   0.0000       2.542170        69.1760 
 256   0.0000       2.543374        69.2087 
 257   0.0000       2.569149        69.9101 
 258   0.0000       2.573172        70.0196 
 259   0.0000       2.575789        70.0908 
 260   0.0000       2.631204        71.5987 
 261   0.0000       2.641361        71.8751 
 262   0.0000       2.645790        71.9956 
 263   0.0000       2.646474        72.0142 
 264   0.0000       2.701245        73.5046 
 265   0.0000       2.709803        73.7375 
 266   0.0000       2.729426        74.2714 
 267   0.0000       2.736748        74.4707 
 268   0.0000       2.747536        74.7643 
 269   0.0000       2.751173        74.8632 
 270   0.0000       2.774167        75.4889 
 271   0.0000       2.778637        75.6106 
 272   0.0000       2.780886        75.6717 
 273   0.0000       2.783686        75.7480 
 274   0.0000       2.808488        76.4228 
 275   0.0000       2.809048        76.4381 
 276   0.0000       2.812051        76.5198 
 277   0.0000       2.812464        76.5310 
 278   0.0000       2.820872        76.7598 
 279   0.0000       2.823794        76.8393 
 280   0.0000       2.839184        77.2581 
 281   0.0000       2.843241        77.3685 
 282   0.0000       2.857675        77.7613 
 283   0.0000       2.884529        78.4920 
 284   0.0000       2.894692        78.7686 
 285   0.0000       2.900452        78.9253 
 286   0.0000       2.909005        79.1581 
 287   0.0000       2.930213        79.7352 
 288   0.0000       2.938495        79.9605 
 289   0.0000       2.938943        79.9727 
 290   0.0000       2.963939        80.6529 
 291   0.0000       2.993680        81.4622 
 292   0.0000       2.998735        81.5997 
 293   0.0000       2.999533        81.6214 
 294   0.0000       3.020829        82.2009 
 295   0.0000       3.035961        82.6127 
 296   0.0000       3.045314        82.8672 
 297   0.0000       3.045848        82.8817 
 298   0.0000       3.051955        83.0479 
 299   0.0000       3.056046        83.1592 
 300   0.0000       3.059533        83.2541 
 301   0.0000       3.066895        83.4545 
 302   0.0000       3.067529        83.4717 
 303   0.0000       3.069260        83.5188 
 304   0.0000       3.070587        83.5549 
 305   0.0000       3.095216        84.2251 
 306   0.0000       3.105609        84.5079 
 307   0.0000       3.116185        84.7957 
 308   0.0000       3.119529        84.8867 
 309   0.0000       3.130963        85.1978 
 310   0.0000       3.149470        85.7014 
 311   0.0000       3.185766        86.6891 
 312   0.0000       3.195175        86.9451 
 313   0.0000       3.195905        86.9650 
 314   0.0000       3.222795        87.6967 
 315   0.0000       3.225975        87.7832 
 316   0.0000       3.231442        87.9320 
 317   0.0000       3.235767        88.0497 
 318   0.0000       3.267724        88.9193 
 319   0.0000       3.270727        89.0010 
 320   0.0000       3.277567        89.1871 
 321   0.0000       3.277687        89.1904 
 322   0.0000       3.299963        89.7966 
 323   0.0000       3.301202        89.8303 
 324   0.0000       3.303538        89.8938 
 325   0.0000       3.318067        90.2892 
 326   0.0000       3.319135        90.3182 
 327   0.0000       3.323811        90.4455 
 328   0.0000       3.325415        90.4891 
 329   0.0000       3.332966        90.6946 
 330   0.0000       3.338784        90.8529 
 331   0.0000       3.350268        91.1654 
 332   0.0000       3.356321        91.3301 
 333   0.0000       3.364546        91.5539 
 334   0.0000       3.368358        91.6577 
 335   0.0000       3.372147        91.7608 
 336   0.0000       3.378971        91.9465 
 337   0.0000       3.380516        91.9885 
 338   0.0000       3.400375        92.5289 
 339   0.0000       3.403165        92.6048 
 340   0.0000       3.407257        92.7162 
 341   0.0000       3.411653        92.8358 
 342   0.0000       3.415881        92.9508 
 343   0.0000       3.417013        92.9816 
 344   0.0000       3.430121        93.3383 
 345   0.0000       3.430322        93.3438 
 346   0.0000       3.447007        93.7978 
 347   0.0000       3.470918        94.4485 
 348   0.0000       3.483527        94.7916 
 349   0.0000       3.483860        94.8007 
 350   0.0000       3.487316        94.8947 
 351   0.0000       3.489756        94.9611 
 352   0.0000       3.495727        95.1236 
 353   0.0000       3.516252        95.6821 
 354   0.0000       3.530038        96.0572 
 355   0.0000       3.535877        96.2161 
 356   0.0000       3.558799        96.8398 
 357   0.0000       3.561930        96.9251 
 358   0.0000       3.569521        97.1316 
 359   0.0000       3.573661        97.2442 
 360   0.0000       3.595656        97.8428 
 361   0.0000       3.607032        98.1523 
 362   0.0000       3.616424        98.4079 
 363   0.0000       3.620519        98.5193 
 364   0.0000       3.622147        98.5636 
 365   0.0000       3.625824        98.6637 
 366   0.0000       3.626542        98.6832 
 367   0.0000       3.642838        99.1267 
 368   0.0000       3.654784        99.4517 
 369   0.0000       3.658686        99.5579 
 370   0.0000       3.669768        99.8595 
 371   0.0000       3.673803        99.9693 
 372   0.0000       3.685840       100.2968 
 373   0.0000       3.695831       100.5687 
 374   0.0000       3.700129       100.6856 
 375   0.0000       3.710184       100.9592 
 376   0.0000       3.718925       101.1971 
 377   0.0000       3.721667       101.2717 
 378   0.0000       3.741619       101.8146 
 379   0.0000       3.743585       101.8681 
 380   0.0000       3.750980       102.0694 
 381   0.0000       3.756619       102.2228 
 382   0.0000       3.806564       103.5819 
 383   0.0000       3.809326       103.6570 
 384   0.0000       3.825086       104.0859 
 385   0.0000       3.826522       104.1250 
 386   0.0000       3.859221       105.0147 
 387   0.0000       3.859434       105.0205 
 388   0.0000       3.872745       105.3827 
 389   0.0000       3.898249       106.0768 
 390   0.0000       3.898840       106.0928 
 391   0.0000       3.907744       106.3351 
 392   0.0000       3.913221       106.4842 
 393   0.0000       3.927278       106.8667 
 394   0.0000       3.960898       107.7815 
 395   0.0000       3.967876       107.9714 
 396   0.0000       3.969524       108.0162 
 397   0.0000       3.976811       108.2145 
 398   0.0000       4.016435       109.2928 
 399   0.0000       4.033653       109.7613 
 400   0.0000       4.041491       109.9746 
 401   0.0000       4.047262       110.1316 
 402   0.0000       4.050394       110.2168 
 403   0.0000       4.053685       110.3064 
 404   0.0000       4.058949       110.4496 
 405   0.0000       4.059323       110.4598 
 406   0.0000       4.069618       110.7399 
 407   0.0000       4.083042       111.1052 
 408   0.0000       4.089379       111.2777 
 409   0.0000       4.094468       111.4161 
 410   0.0000       4.100800       111.5884 
 411   0.0000       4.109473       111.8244 
 412   0.0000       4.127414       112.3126 
 413   0.0000       4.134180       112.4968 
 414   0.0000       4.141083       112.6846 
 415   0.0000       4.154607       113.0526 
 416   0.0000       4.160910       113.2241 
 417   0.0000       4.164213       113.3140 
 418   0.0000       4.164432       113.3200 
 419   0.0000       4.165234       113.3418 
 420   0.0000       4.225731       114.9880 
 421   0.0000       4.245390       115.5229 
 422   0.0000       4.247471       115.5796 
 423   0.0000       4.254422       115.7687 
 424   0.0000       4.259514       115.9073 
 425   0.0000       4.267448       116.1232 
 426   0.0000       4.274120       116.3047 
 427   0.0000       4.278254       116.4172 
 428   0.0000       4.297730       116.9472 
 429   0.0000       4.309937       117.2793 
 430   0.0000       4.310746       117.3014 
 431   0.0000       4.313483       117.3758 
 432   0.0000       4.316328       117.4532 
 433   0.0000       4.338076       118.0451 
 434   0.0000       4.349675       118.3607 
 435   0.0000       4.366509       118.8187 
 436   0.0000       4.368027       118.8600 
 437   0.0000       4.372678       118.9866 
 438   0.0000       4.390067       119.4598 
 439   0.0000       4.443467       120.9129 
 440   0.0000       4.451489       121.1312 
 441   0.0000       4.453692       121.1911 
 442   0.0000       4.459047       121.3368 
 443   0.0000       4.460075       121.3648 
 444   0.0000       4.473002       121.7166 
 445   0.0000       4.484270       122.0232 
 446   0.0000       4.494400       122.2988 
 447   0.0000       4.527972       123.2124 
 448   0.0000       4.529496       123.2538 
 449   0.0000       4.550662       123.8298 
 450   0.0000       4.558437       124.0414 
 451   0.0000       4.558787       124.0509 
 452   0.0000       4.560978       124.1105 
 453   0.0000       4.577741       124.5667 
 454   0.0000       4.578197       124.5791 
 455   0.0000       4.584318       124.7456 
 456   0.0000       4.586616       124.8082 
 457   0.0000       4.597490       125.1041 
 458   0.0000       4.608400       125.4009 
 459   0.0000       4.649942       126.5313 
 460   0.0000       4.657534       126.7379 
 461   0.0000       4.666398       126.9792 
 462   0.0000       4.669160       127.0543 
 463   0.0000       4.670703       127.0963 
 464   0.0000       4.671962       127.1306 
 465   0.0000       4.684671       127.4764 
 466   0.0000       4.694462       127.7428 
 467   0.0000       4.698241       127.8456 
 468   0.0000       4.700913       127.9183 
 469   0.0000       4.712548       128.2349 
 470   0.0000       4.753991       129.3627 
 471   0.0000       4.767459       129.7291 
 472   0.0000       4.769667       129.7893 
 473   0.0000       4.777818       130.0110 
 474   0.0000       4.787106       130.2638 
 475   0.0000       4.849903       131.9726 
 476   0.0000       4.850664       131.9933 
 477   0.0000       4.860084       132.2496 
 478   0.0000       4.876211       132.6885 
 479   0.0000       4.878603       132.7535 
 480   0.0000       4.926786       134.0647 
 481   0.0000       4.947484       134.6279 
 482   0.0000       4.980649       135.5303 
 483   0.0000       5.030353       136.8829 
 484   0.0000       5.030907       136.8979 
 485   0.0000       5.046409       137.3198 
 486   0.0000       5.049895       137.4146 
 487   0.0000       5.050365       137.4274 
 488   0.0000       5.054188       137.5315 
 489   0.0000       5.122285       139.3845 
 490   0.0000       5.123313       139.4124 
 491   0.0000       5.130077       139.5965 
 492   0.0000       5.138533       139.8266 
 493   0.0000       5.152362       140.2029 
 494   0.0000       5.161510       140.4518 
 495   0.0000       5.165826       140.5693 
 496   0.0000       5.166314       140.5825 
 497   0.0000       5.183111       141.0396 
 498   0.0000       5.210554       141.7864 
 499   0.0000       5.243030       142.6701 
 500   0.0000       5.271327       143.4401 
 501   0.0000       5.273787       143.5070 
 502   0.0000       5.304594       144.3453 
 503   0.0000       5.328551       144.9972 
 504   0.0000       5.347007       145.4995 
 505   0.0000       5.359499       145.8394 
 506   0.0000       5.370459       146.1376 
 507   0.0000       5.390960       146.6955 
 508   0.0000       5.422148       147.5442 
 509   0.0000       5.434561       147.8819 
 510   0.0000       5.467721       148.7843 
 511   0.0000       5.487225       149.3150 
 512   0.0000       5.491085       149.4200 
 513   0.0000       5.498480       149.6212 
 514   0.0000       5.543811       150.8548 
 515   0.0000       5.585123       151.9789 
 516   0.0000       5.591180       152.1438 
 517   0.0000       5.637197       153.3959 
 518   0.0000       5.709056       155.3513 
 519   0.0000       5.724897       155.7824 
 520   0.0000       5.727357       155.8493 
 521   0.0000       5.752057       156.5214 
 522   0.0000       5.831507       158.6834 
 523   0.0000       5.831935       158.6950 
 524   0.0000       5.861737       159.5060 
 525   0.0000       5.878023       159.9491 
 526   0.0000       5.931155       161.3949 
 527   0.0000       6.013511       163.6360 
 528   0.0000       6.059669       164.8920 
 529   0.0000       6.143627       167.1766 
 530   0.0000       6.179698       168.1581 
 531   0.0000       6.187719       168.3764 
 532   0.0000       6.230495       169.5404 
 533   0.0000       6.275925       170.7766 
 534   0.0000       6.306149       171.5990 
 535   0.0000       6.344765       172.6498 
 536   0.0000       6.365814       173.2226 
 537   0.0000       6.399926       174.1508 
 538   0.0000       6.472801       176.1339 
 539   0.0000       6.559988       178.5064 
 540   0.0000       6.583068       179.1344 
 541   0.0000       6.659804       181.2225 
 542   0.0000       6.773560       184.3179 
 543   0.0000       6.858088       186.6181 
 544   0.0000       7.151740       194.6087 
 545   0.0000       7.437468       202.3838 
 546   0.0000       8.566894       233.1170 
 547   0.0000      10.631219       289.2902 
 548   0.0000      12.075434       328.5893 
 549   0.0000      12.971776       352.9800 
 550   0.0000      13.414086       365.0158 
 551   0.0000      13.463344       366.3562 
 552   0.0000      13.639364       371.1460 
 553   0.0000      13.915205       378.6520 
 554   0.0000      13.999669       380.9504 
 555   0.0000      14.471369       393.7860 
 556   0.0000      15.265431       415.3935 
 557   0.0000      15.952550       434.0910 
 558   0.0000      16.085825       437.7175 
 559   0.0000      16.693457       454.2521 
------------------
MOLECULAR ORBITALS (RHF, ROHF)
------------------
                      0         1         2         3         4         5   
                 -11.24482 -11.24476 -11.24389 -11.24377 -11.23724 -11.23724
                   2.00000   2.00000   2.00000   2.00000   2.00000   2.00000
                  --------  --------  --------  --------  --------  --------
  0C   1s        -0.001660  0.001743  0.003003  0.003155 -0.023451  0.064831
  0C   2s         0.000094  0.000065  0.000421  0.000313  0.000024  0.000270
  0C   3s         0.000010 -0.000045 -0.000013 -0.000003  0.000003  0.000118
  0C   4s         0.000411  0.000801  0.003904  0.000801  0.004312 -0.000372
  0C   1pz       -0.000000  0.000000  0.000000  0.000000  0.000000  0.000000
  0C   1px       -0.000128  0.000084  0.000099  0.000121  0.000001 -0.000010
  0C   1py        0.000010 -0.000013 -0.000003  0.000020 -0.000034 -0.000018
  0C   2pz        0.000000 -0.000000 -0.000000 -0.000000 -0.000000  0.000000
  0C   2px        0.000604 -0.000422 -0.000068 -0.000231 -0.000055  0.000153
  0C   2py       -0.000259  0.000218  0.000044 -0.000111 -0.000058 -0.000129
  0C   3pz       -0.000000 -0.000000  0.000000 -0.000000  0.000000  0.000000
  0C   3px        0.000197  0.000009  0.001511  0.000303  0.001958  0.000065
  0C   3py        0.000359  0.000217  0.000017  0.000800 -0.000171 -0.000057
  0C   1dz2      -0.000013  0.000009 -0.000004 -0.000006  0.000027 -0.000036
  0C   1dxz      -0.000000  0.000000  0.000000  0.000000 -0.000000  0.000000
  0C   1dyz      -0.000000 -0.000000 -0.000000 -0.000000  0.000000 -0.000000
  0C   1dx2y2    -0.000018  0.000015  0.000012  0.000007  0.000011 -0.000007
  0C   1dxy       0.000008 -0.000000 -0.000002 -0.000002 -0.000032  0.000020
  0C   2dz2       0.000105 -0.000139 -0.000100 -0.000026  0.000040 -0.000046
  0C   2dxz      -0.000000  0.000000 -0.000000 -0.000000 -0.000000  0.000000
  0C   2dyz       0.000000 -0.000000  0.000000  0.000000  0.000000  0.000000
  0C   2dx2y2     0.000188 -0.000019 -0.000536 -0.000532 -0.000717  0.000295
  0C   2dxy       0.000127 -0.000103  0.000564  0.000357  0.000733 -0.000049
  0C   1f0       -0.000000  0.000000  0.000000  0.000000  0.000000  0.000000
  0C   1f+1      -0.000030  0.000024  0.000016  0.000016  0.000008  0.000001
  0C   1f-1      -0.000003 -0.000007  0.000015  0.000015  0.000009 -0.000026
  0C   1f+2       0.000000 -0.000000 -0.000000 -0.000000  0.000000  0.000000
  0C   1f-2      -0.000000  0.000000  0.000000  0.000000 -0.000000  0.000000
  0C   1f+3      -0.000029  0.000023  0.000029  0.000018 -0.000019  0.000002
  0C   1f-3       0.000045 -0.000057 -0.000044 -0.000042  0.000042 -0.000015
  1C   1s        -0.030396  0.030915  0.035088  0.035956 -0.067816  0.091492
  1C   2s        -0.000178  0.000439  0.000463  0.000245 -0.000537  0.000337
  1C   3s        -0.000185  0.000071  0.000198  0.000164 -0.000226  0.000167
  1C   4s         0.001510  0.000077 -0.003215  0.000968 -0.005977  0.001398
  1C   1pz       -0.000000  0.000000  0.000000  0.000000  0.000000 -0.000000
  1C   1px       -0.000481  0.000311  0.000368  0.000356  0.000088 -0.000160
  1C   1py        0.000241 -0.000190 -0.000027 -0.000055  0.000010  0.000023
  1C   2pz        0.000000  0.000000  0.000000  0.000000 -0.000000  0.000000
  1C   2px        0.000752  0.000128  0.000039 -0.000118 -0.001070  0.000961
  1C   2py       -0.000455  0.000150 -0.000676 -0.000430  0.000519 -0.000427
  1C   3pz        0.000000  0.000000  0.000000  0.000000 -0.000000  0.000000
  1C   3px        0.001764  0.000382  0.001389  0.001760  0.000934  0.000210
  1C   3py       -0.000410  0.000050  0.002125  0.000737  0.003467 -0.001125
  1C   1dz2      -0.000045  0.000024  0.000040  0.000026  0.000027 -0.000063
  1C   1dxz       0.000000  0.000000 -0.000000 -0.000000 -0.000000  0.000000
  1C   1dyz      -0.000000  0.000000  0.000000  0.000000  0.000000 -0.000000
  1C   1dx2y2     0.000008  0.000010  0.000027  0.000020  0.000039 -0.000011
  1C   1dxy      -0.000033 -0.000003  0.000022  0.000022  0.000013 -0.000020
  1C   2dz2      -0.000041 -0.000093  0.000151  0.000048 -0.000175  0.000036
  1C   2dxz       0.000000  0.000000 -0.000000 -0.000000 -0.000000  0.000000
  1C   2dyz      -0.000000  0.000000 -0.000000 -0.000000 -0.000000  0.000000
  1C   2dx2y2     0.000378  0.000063 -0.000985 -0.000745 -0.001761  0.000858
  1C   2dxy      -0.000634  0.000308 -0.000010  0.000260 -0.000024 -0.000207
  1C   1f0       -0.000000  0.000000  0.000000  0.000000 -0.000000 -0.000000
  1C   1f+1      -0.000090  0.000046  0.000077  0.000077 -0.000022 -0.000030
  1C   1f-1       0.000056 -0.000029 -0.000020 -0.000011  0.000006 -0.000000
  1C   1f+2       0.000000 -0.000000 -0.000000 -0.000000  0.000000  0.000000
  1C   1f-2      -0.000000  0.000000  0.000000  0.000000 -0.000000 -0.000000
  1C   1f+3       0.000027 -0.000020  0.000068  0.000074  0.000032 -0.000040
  1C   1f-3       0.000144 -0.000102 -0.000218 -0.000196  0.000073  0.000007
  2C   1s        -0.495758  0.498953  0.494679  0.498604 -0.058693  0.048860
  2C   2s        -0.001790  0.002233  0.002352  0.001663 -0.000250  0.000312
  2C   3s        -0.000900  0.000949  0.000721  0.000783  0.000088 -0.000056
  2C   4s        -0.004659  0.000906  0.011541  0.005124 -0.005099  0.003478
  2C   1pz       -0.000000  0.000000  0.000000  0.000000  0.000000 -0.000000
  2C   1px        0.000010 -0.000297 -0.000019 -0.000240  0.000488 -0.000806
  2C   1py        0.000503 -0.000441  0.000422  0.000341  0.000397 -0.000279
  2C   2pz        0.000000  0.000000 -0.000000 -0.000000 -0.000000  0.000000
  2C   2px        0.000187  0.001019  0.000063  0.000453 -0.000739  0.001901
  2C   2py       -0.000749  0.000143 -0.000710 -0.000299 -0.001257  0.000300
  2C   3pz       -0.000000  0.000000  0.000000  0.000000 -0.000000  0.000000
  2C   3px       -0.000644  0.001384 -0.000480  0.000119 -0.010717  0.003806
  2C   3py       -0.001625  0.000643 -0.006954 -0.008439 -0.003986  0.000935
  2C   1dz2       0.000286 -0.000324 -0.000398 -0.000413  0.000122 -0.000118
  2C   1dxz      -0.000000  0.000000  0.000000  0.000000 -0.000000  0.000000
  2C   1dyz       0.000000 -0.000000 -0.000000 -0.000000  0.000000 -0.000000
  2C   1dx2y2    -0.000058  0.000015  0.000080  0.000057 -0.000023  0.000032
  2C   1dxy      -0.000017  0.000015  0.000022  0.000017  0.000049  0.000019
  2C   2dz2       0.000187  0.000110 -0.000270 -0.000021  0.000188 -0.000053
  2C   2dxz      -0.000000  0.000000 -0.000000 -0.000000  0.000000 -0.000000
  2C   2dyz       0.000000  0.000000 -0.000000 -0.000000 -0.000000  0.000000
  2C   2dx2y2    -0.000364  0.000730 -0.002230 -0.000934 -0.000664  0.000341
  2C   2dxy       0.000009  0.000332  0.000262 -0.000238 -0.004017  0.001371
  2C   1f0       -0.000000  0.000000 -0.000000 -0.000000  0.000000 -0.000000
  2C   1f+1      -0.000015 -0.000044  0.000007 -0.000026  0.000130 -0.000155
  2C   1f-1       0.000090 -0.000083  0.000108  0.000068  0.000070 -0.000058
  2C   1f+2       0.000000 -0.000000 -0.000000 -0.000000  0.000000  0.000000
  2C   1f-2      -0.000000  0.000000  0.000000  0.000000 -0.000000 -0.000000
  2C   1f+3      -0.000023 -0.000027  0.000028 -0.000008  0.000087  0.000059
  2C   1f-3       0.000213 -0.000110 -0.000560 -0.000506  0.000325 -0.000209
  3C   1s        -0.495765  0.498960 -0.494672 -0.498598  0.059455  0.047931
  3C   2s        -0.001790  0.002233 -0.002352 -0.001663  0.000255  0.000308
  3C   3s        -0.000900  0.000949 -0.000721 -0.000783 -0.000089 -0.000055
  3C   4s        -0.004659  0.000906 -0.011541 -0.005124  0.005153  0.003397
  3C   1pz       -0.000000  0.000000 -0.000000 -0.000000  0.000000  0.000000
  3C   1px        0.000010 -0.000297  0.000019  0.000240 -0.000500 -0.000799
  3C   1py       -0.000503  0.000441  0.000422  0.000341  0.000401  0.000273
  3C   2pz        0.000000 -0.000000  0.000000  0.000000 -0.000000 -0.000000
  3C   2px        0.000187  0.001019 -0.000063 -0.000453  0.000769  0.001889
  3C   2py        0.000749 -0.000143 -0.000710 -0.000299 -0.001261 -0.000280
  3C   3pz        0.000000 -0.000000  0.000000  0.000000  0.000000  0.000000
  3C   3px       -0.000644  0.001384  0.000480 -0.000119  0.010775  0.003637
  3C   3py        0.001625 -0.000643 -0.006954 -0.008439 -0.004000 -0.000872
  3C   1dz2       0.000286 -0.000324  0.000398  0.000413 -0.000124 -0.000116
  3C   1dxz      -0.000000 -0.000000 -0.000000 -0.000000 -0.000000 -0.000000
  3C   1dyz      -0.000000 -0.000000  0.000000  0.000000 -0.000000  0.000000
  3C   1dx2y2    -0.000058  0.000015 -0.000080 -0.000057  0.000024  0.000031
  3C   1dxy       0.000017 -0.000015  0.000022  0.000017  0.000049 -0.000019
  3C   2dz2       0.000187  0.000110  0.000270  0.000021 -0.000189 -0.000050
  3C   2dxz       0.000000 -0.000000  0.000000  0.000000  0.000000 -0.000000
  3C   2dyz      -0.000000  0.000000  0.000000  0.000000 -0.000000  0.000000
  3C   2dx2y2    -0.000364  0.000730  0.002230  0.000934  0.000669  0.000331
  3C   2dxy      -0.000009 -0.000332  0.000262 -0.000238 -0.004038 -0.001307
  3C   1f0       -0.000000 -0.000000 -0.000000 -0.000000  0.000000  0.000000
  3C   1f+1      -0.000015 -0.000044 -0.000007  0.000026 -0.000132 -0.000153
  3C   1f-1      -0.000090  0.000083  0.000108  0.000068  0.000070  0.000057
  3C   1f+2       0.000000 -0.000000 -0.000000 -0.000000 -0.000000 -0.000000
  3C   1f-2       0.000000  0.000000  0.000000  0.000000  0.000000  0.000000
  3C   1f+3      -0.000023 -0.000027 -0.000028  0.000008 -0.000086  0.000061
  3C   1f-3      -0.000213  0.000110 -0.000560 -0.000506  0.000329  0.000204
  4C   1s        -0.030397  0.030915 -0.035088 -0.035956  0.069242  0.090414
  4C   2s        -0.000178  0.000439 -0.000463 -0.000245  0.000542  0.000329
  4C   3s        -0.000185  0.000071 -0.000198 -0.000164  0.000228  0.000164
  4C   4s         0.001510  0.000077  0.003215 -0.000968  0.005998  0.001304
  4C   1pz       -0.000000 -0.000000 -0.000000 -0.000000  0.000000  0.000000
  4C   1px       -0.000481  0.000311 -0.000368 -0.000356 -0.000090 -0.000159
  4C   1py       -0.000241  0.000190 -0.000027 -0.000055  0.000010 -0.000024
  4C   2pz        0.000000  0.000000 -0.000000  0.000000  0.000000  0.000000
  4C   2px        0.000752  0.000128 -0.000039  0.000118  0.001085  0.000944
  4C   2py        0.000455 -0.000150 -0.000676 -0.000430  0.000526  0.000419
  4C   3pz        0.000000  0.000000 -0.000000 -0.000000 -0.000000 -0.000000
  4C   3px        0.001764  0.000382 -0.001389 -0.001760 -0.000930  0.000225
  4C   3py        0.000410 -0.000050  0.002125  0.000737  0.003484  0.001070
  4C   1dz2      -0.000045  0.000024 -0.000040 -0.000026 -0.000028 -0.000063
  4C   1dxz      -0.000000 -0.000000 -0.000000  0.000000 -0.000000  0.000000
  4C   1dyz       0.000000  0.000000  0.000000 -0.000000 -0.000000 -0.000000
  4C   1dx2y2     0.000008  0.000010 -0.000027 -0.000020 -0.000039 -0.000010
  4C   1dxy       0.000033  0.000003  0.000022  0.000022  0.000013  0.000020
  4C   2dz2      -0.000041 -0.000093 -0.000151 -0.000048  0.000175  0.000033
  4C   2dxz       0.000000  0.000000  0.000000  0.000000  0.000000  0.000000
  4C   2dyz       0.000000 -0.000000  0.000000  0.000000  0.000000  0.000000
  4C   2dx2y2     0.000378  0.000063  0.000985  0.000745  0.001774  0.000830
  4C   2dxy       0.000634 -0.000308 -0.000010  0.000260 -0.000021  0.000207
  4C   1f0       -0.000000  0.000000 -0.000000 -0.000000  0.000000 -0.000000
  4C   1f+1      -0.000090  0.000046 -0.000077 -0.000077  0.000021 -0.000030
  4C   1f-1      -0.000056  0.000029 -0.000020 -0.000011  0.000006  0.000000
  4C   1f+2       0.000000  0.000000 -0.000000 -0.000000 -0.000000 -0.000000
  4C   1f-2       0.000000 -0.000000  0.000000  0.000000 -0.000000  0.000000
  4C   1f+3       0.000027 -0.000020 -0.000068 -0.000074 -0.000032 -0.000040
  4C   1f-3      -0.000144  0.000102 -0.000218 -0.000196  0.000073 -0.000008
  5C   1s        -0.001660  0.001743 -0.003003 -0.003155  0.024463  0.064454
  5C   2s         0.000094  0.000065 -0.000421 -0.000313 -0.000020  0.000270
  5C   3s         0.000010 -0.000045  0.000013  0.000003 -0.000001  0.000118
  5C   4s         0.000411  0.000801 -0.003904 -0.000801 -0.004317 -0.000304
  5C   1pz       -0.000000 -0.000000 -0.000000 -0.000000  0.000000 -0.000000
  5C   1px       -0.000128  0.000084 -0.000099 -0.000121 -0.000001 -0.000010
  5C   1py       -0.000010  0.000013 -0.000003  0.000020 -0.000034  0.000018
  5C   2pz        0.000000 -0.000000  0.000000  0.000000  0.000000  0.000000
  5C   2px        0.000604 -0.000422  0.000068  0.000231  0.000057  0.000152
  5C   2py        0.000259 -0.000218  0.000044 -0.000111 -0.000056  0.000130
  5C   3pz        0.000000  0.000000 -0.000000 -0.000000 -0.000000  0.000000
  5C   3px        0.000197  0.000009 -0.001511 -0.000303 -0.001957  0.000096
  5C   3py       -0.000359 -0.000217  0.000017  0.000800 -0.000170  0.000060
  5C   1dz2      -0.000013  0.000009  0.000004  0.000006 -0.000028 -0.000036
  5C   1dxz      -0.000000  0.000000 -0.000000 -0.000000  0.000000  0.000000
  5C   1dyz      -0.000000  0.000000 -0.000000  0.000000 -0.000000 -0.000000
  5C   1dx2y2    -0.000018  0.000015 -0.000012 -0.000007 -0.000011 -0.000007
  5C   1dxy      -0.000008  0.000000 -0.000002 -0.000002 -0.000032 -0.000020
  5C   2dz2       0.000105 -0.000139  0.000100  0.000026 -0.000041 -0.000045
  5C   2dxz       0.000000  0.000000  0.000000  0.000000  0.000000  0.000000
  5C   2dyz      -0.000000 -0.000000  0.000000  0.000000  0.000000  0.000000
  5C   2dx2y2     0.000188 -0.000019  0.000536  0.000532  0.000722  0.000283
  5C   2dxy      -0.000127  0.000103  0.000564  0.000357  0.000734  0.000037
  5C   1f0       -0.000000  0.000000 -0.000000 -0.000000 -0.000000 -0.000000
  5C   1f+1      -0.000030  0.000024 -0.000016 -0.000016 -0.000008  0.000001
  5C   1f-1       0.000003  0.000007  0.000015  0.000015  0.000009  0.000026
  5C   1f+2       0.000000 -0.000000 -0.000000 -0.000000 -0.000000 -0.000000
  5C   1f-2       0.000000 -0.000000  0.000000  0.000000 -0.000000 -0.000000
  5C   1f+3      -0.000029  0.000023 -0.000029 -0.000018  0.000019  0.000002
  5C   1f-3      -0.000045  0.000057 -0.000044 -0.000042  0.000042  0.000014
  6C   1s        -0.078031  0.000001  0.090966  0.000001  0.689406 -0.691123
  6C   2s        -0.000376  0.000000  0.000755  0.000000  0.003666 -0.002385
  6C   3s        -0.000379  0.000000  0.000452  0.000000  0.001130 -0.001094
  6C   4s         0.006047 -0.000000 -0.000684 -0.000000  0.021781 -0.008824
  6C   1pz        0.000000  0.000000 -0.000000  0.000000  0.000000 -0.000000
  6C   1px       -0.000000 -0.000834  0.000000 -0.000762 -0.000000 -0.000000
  6C   1py        0.000484 -0.000000 -0.000101 -0.000000  0.000485 -0.000494
  6C   2pz       -0.000000 -0.000000  0.000000 -0.000000 -0.000000  0.000000
  6C   2px        0.000000  0.001255 -0.000000  0.000660  0.000000  0.000000
  6C   2py       -0.000955  0.000000 -0.001018 -0.000000 -0.002931  0.002088
  6C   3pz        0.000000 -0.000000 -0.000000 -0.000000 -0.000000  0.000000
  6C   3px        0.000000  0.002608  0.000000 -0.003547  0.000000  0.000000
  6C   3py       -0.002087  0.000000  0.002260  0.000000 -0.007480  0.003857
  6C   1dz2      -0.000078  0.000000  0.000067  0.000000 -0.000556  0.000541
  6C   1dxz       0.000000 -0.000000 -0.000000 -0.000000  0.000000 -0.000000
  6C   1dyz       0.000000  0.000000  0.000000 -0.000000 -0.000000  0.000000
  6C   1dx2y2     0.000008 -0.000000  0.000021  0.000000  0.000046 -0.000044
  6C   1dxy      -0.000000 -0.000059  0.000000 -0.000076 -0.000000 -0.000000
  6C   2dz2      -0.000150  0.000000  0.000268  0.000000 -0.000138  0.000153
  6C   2dxz      -0.000000 -0.000000 -0.000000  0.000000  0.000000  0.000000
  6C   2dyz       0.000000 -0.000000 -0.000000 -0.000000  0.000000 -0.000000
  6C   2dx2y2     0.000612 -0.000000 -0.001688 -0.000000  0.003058 -0.001424
  6C   2dxy      -0.000000 -0.001369  0.000000 -0.000566 -0.000000 -0.000000
  6C   1f0        0.000000 -0.000000 -0.000000 -0.000000  0.000000 -0.000000
  6C   1f+1      -0.000000 -0.000166  0.000000 -0.000165 -0.000000 -0.000000
  6C   1f-1       0.000106 -0.000000 -0.000059 -0.000000  0.000022 -0.000014
  6C   1f+2      -0.000000 -0.000000  0.000000  0.000000 -0.000000 -0.000000
  6C   1f-2      -0.000000  0.000000  0.000000  0.000000 -0.000000  0.000000
  6C   1f+3       0.000000  0.000064  0.000000 -0.000139 -0.000000 -0.000000
  6C   1f-3       0.000245 -0.000000 -0.000374 -0.000000  0.000609 -0.000604
  7C   1s        -0.495775 -0.498937  0.494689 -0.498594 -0.058693  0.048860
  7C   2s        -0.001790 -0.002233  0.002352 -0.001663 -0.000250  0.000312
  7C   3s        -0.000900 -0.000949  0.000721 -0.000783  0.000088 -0.000056
  7C   4s        -0.004659 -0.000906  0.011542 -0.005124 -0.005099  0.003478
  7C   1pz       -0.000000 -0.000000  0.000000 -0.000000 -0.000000 -0.000000
  7C   1px       -0.000010 -0.000297  0.000019 -0.000240 -0.000488  0.000806
  7C   1py        0.000503  0.000441  0.000422 -0.000341  0.000397 -0.000279
  7C   2pz        0.000000  0.000000 -0.000000  0.000000  0.000000  0.000000
  7C   2px       -0.000187  0.001019 -0.000063  0.000453  0.000739 -0.001901
  7C   2py       -0.000749 -0.000143 -0.000710  0.000299 -0.001257  0.000300
  7C   3pz       -0.000000 -0.000000 -0.000000  0.000000 -0.000000  0.000000
  7C   3px        0.000644  0.001384  0.000480  0.000119  0.010717 -0.003806
  7C   3py       -0.001625 -0.000643 -0.006955  0.008438 -0.003986  0.000935
  7C   1dz2       0.000286  0.000324 -0.000398  0.000413  0.000122 -0.000118
  7C   1dxz       0.000000  0.000000 -0.000000  0.000000  0.000000 -0.000000
  7C   1dyz      -0.000000 -0.000000  0.000000 -0.000000  0.000000 -0.000000
  7C   1dx2y2    -0.000058 -0.000015  0.000080 -0.000057 -0.000023  0.000032
  7C   1dxy       0.000017  0.000015 -0.000022  0.000017 -0.000049 -0.000019
  7C   2dz2       0.000187 -0.000110 -0.000270  0.000021  0.000188 -0.000053
  7C   2dxz      -0.000000  0.000000  0.000000 -0.000000  0.000000  0.000000
[...]
  8C   3s         2.281432  2.630524
  8C   4s        -8.628539 -0.009663
  8C   1pz       -0.000000  0.000000
  8C   1px       -0.000000 -0.000000
  8C   1py        0.086039  0.084741
  8C   2pz        0.000000 -0.000000
  8C   2px        0.000003  0.000000
  8C   2py       -0.491559 -1.766382
  8C   3pz        0.000000  0.000000
  8C   3px       -0.000001  0.000000
  8C   3py       -2.748855 -1.361757
  8C   1dz2       0.329904  0.327095
  8C   1dxz       0.000000  0.000000
  8C   1dyz      -0.000000 -0.000000
  8C   1dx2y2     0.016819  0.106699
  8C   1dxy      -0.000000  0.000000
  8C   2dz2       1.239386  0.424086
  8C   2dxz       0.000000  0.000000
  8C   2dyz       0.000000  0.000000
  8C   2dx2y2    -2.441036 -4.515180
  8C   2dxy      -0.000000  0.000000
  8C   1f0       -0.000000 -0.000000
  8C   1f+1       0.000000 -0.000000
  8C   1f-1       0.058446 -0.042379
  8C   1f+2      -0.000000 -0.000000
  8C   1f-2       0.000000  0.000000
  8C   1f+3      -0.000000 -0.000000
  8C   1f-3       0.642142  0.350194
  9C   1s         2.702033  0.347130
  9C   2s         8.283558  1.059912
  9C   3s        -2.449187 -0.298355
  9C   4s        10.108820  0.851695
  9C   1pz        0.000000 -0.000000
  9C   1px        0.074104  0.322020
  9C   1py       -0.037513  0.083892
  9C   2pz       -0.000000  0.000000
  9C   2px       -0.653768 -1.924096
  9C   2py        0.091160 -0.366577
  9C   3pz       -0.000000  0.000000
  9C   3px       -1.089159 -2.471608
  9C   3py        0.014706  0.868751
  9C   1dz2      -0.274773 -0.025995
  9C   1dxz      -0.000000  0.000000
  9C   1dyz       0.000000  0.000000
  9C   1dx2y2     0.061847  0.013576
  9C   1dxy      -0.006664 -0.137564
  9C   2dz2      -1.348078 -0.164485
  9C   2dxz      -0.000000  0.000000
  9C   2dyz       0.000000 -0.000001
  9C   2dx2y2    -1.467734 -0.243397
  9C   2dxy       1.573004  7.066377
  9C   1f0        0.000000 -0.000000
  9C   1f+1       0.047570  0.166001
  9C   1f-1      -0.025527  0.008567
  9C   1f+2      -0.000000  0.000000
  9C   1f-2       0.000000 -0.000000
  9C   1f+3       0.013594  0.089100
  9C   1f-3       0.659424  0.068565
 10C   1s         1.193423 -2.686303
 10C   2s         3.653346 -8.357816
 10C   3s        -1.275983  1.871806
 10C   4s         6.058890 -2.172614
 10C   1pz        0.000000 -0.000000
 10C   1px       -0.048327 -0.068780
 10C   1py        0.058346 -0.059142
 10C   2pz       -0.000000  0.000000
 10C   2px        0.934343  0.834111
 10C   2py       -0.182940  1.226732
 10C   3pz       -0.000000  0.000000
 10C   3px       -0.274171  0.378877
 10C   3py       -1.985332  1.405081
 10C   1dz2      -0.189653  0.240583
 10C   1dxz      -0.000000  0.000000
 10C   1dyz       0.000000 -0.000000
 10C   1dx2y2     0.008322  0.084181
 10C   1dxy      -0.030792  0.014965
 10C   2dz2      -0.893060  0.440005
 10C   2dxz      -0.000000  0.000000
 10C   2dyz       0.000000  0.000000
 10C   2dx2y2     1.058650 -3.474406
 10C   2dxy      -0.200795 -0.008716
 10C   1f0        0.000000 -0.000000
 10C   1f+1       0.033893  0.080819
 10C   1f-1       0.051427  0.016916
 10C   1f+2      -0.000000  0.000000
 10C   1f-2       0.000000 -0.000000
 10C   1f+3       0.004327 -0.008052
 10C   1f-3       0.454012 -0.310614
 11C   1s        -1.779607  1.404745
 11C   2s        -5.496183  4.337499
 11C   3s         1.551811 -1.196878
 11C   4s        -5.062404  4.122195
 11C   1pz       -0.000000 -0.000000
 11C   1px       -0.022078  0.091192
 11C   1py       -0.052697 -0.107554
 11C   2pz       -0.000000  0.000000
 11C   2px        0.492516 -0.783647
 11C   2py        0.007808  0.349943
 11C   3pz       -0.000000  0.000000
 11C   3px        1.842806 -1.659519
 11C   3py        1.065232 -1.116874
 11C   1dz2       0.214943 -0.159777
 11C   1dxz       0.000000 -0.000000
 11C   1dyz      -0.000000  0.000000
 11C   1dx2y2    -0.034189  0.055145
 11C   1dxy      -0.003291  0.032915
 11C   2dz2       0.809311 -0.585611
 11C   2dxz       0.000000 -0.000000
 11C   2dyz      -0.000000  0.000000
 11C   2dx2y2     0.607904 -1.267760
 11C   2dxy       1.216806 -2.641069
 11C   1f0       -0.000000 -0.000000
 11C   1f+1      -0.011547  0.045844
 11C   1f-1      -0.007603 -0.019445
 11C   1f+2      -0.000000  0.000000
 11C   1f-2       0.000000 -0.000000
 11C   1f+3       0.019302 -0.008811
 11C   1f-3       0.433178 -0.345480
 12C   1s         1.779607 -1.404744
 12C   2s         5.496183 -4.337498
 12C   3s        -1.551811  1.196877
 12C   4s         5.062403 -4.122196
 12C   1pz       -0.000000 -0.000000
 12C   1px        0.022078 -0.091192
 12C   1py       -0.052697 -0.107554
 12C   2pz        0.000000 -0.000000
 12C   2px       -0.492516  0.783647
 12C   2py        0.007808  0.349943
 12C   3pz        0.000000 -0.000000
 12C   3px       -1.842806  1.659519
 12C   3py        1.065232 -1.116874
 12C   1dz2      -0.214943  0.159777
 12C   1dxz      -0.000000  0.000000
 12C   1dyz       0.000000 -0.000000
 12C   1dx2y2     0.034189 -0.055145
 12C   1dxy      -0.003291  0.032915
 12C   2dz2      -0.809311  0.585611
 12C   2dxz       0.000000 -0.000000
 12C   2dyz       0.000000  0.000000
 12C   2dx2y2    -0.607904  1.267761
 12C   2dxy       1.216806 -2.641069
 12C   1f0       -0.000000  0.000000
 12C   1f+1       0.011547 -0.045844
 12C   1f-1      -0.007603 -0.019445
 12C   1f+2      -0.000000  0.000000
 12C   1f-2       0.000000 -0.000000
 12C   1f+3      -0.019302  0.008811
 12C   1f-3       0.433178 -0.345480
 13C   1s        -1.193422  2.686302
 13C   2s        -3.653344  8.357815
 13C   3s         1.275982 -1.871806
 13C   4s        -6.058889  2.172614
 13C   1pz       -0.000000 -0.000000
 13C   1px        0.048327  0.068781
 13C   1py        0.058346 -0.059142
 13C   2pz        0.000000  0.000000
 13C   2px       -0.934343 -0.834111
 13C   2py       -0.182940  1.226732
 13C   3pz       -0.000000  0.000000
 13C   3px        0.274171 -0.378877
 13C   3py       -1.985332  1.405081
 13C   1dz2       0.189653 -0.240583
 13C   1dxz       0.000000 -0.000000
 13C   1dyz      -0.000000  0.000000
 13C   1dx2y2    -0.008322 -0.084181
 13C   1dxy      -0.030792  0.014965
 13C   2dz2       0.893059 -0.440005
 13C   2dxz       0.000000 -0.000001
 13C   2dyz      -0.000000 -0.000000
 13C   2dx2y2    -1.058651  3.474406
 13C   2dxy      -0.200795 -0.008716
 13C   1f0        0.000000  0.000000
 13C   1f+1      -0.033893 -0.080819
 13C   1f-1       0.051427  0.016915
 13C   1f+2      -0.000000  0.000000
 13C   1f-2       0.000000 -0.000000
 13C   1f+3      -0.004327  0.008052
 13C   1f-3       0.454011 -0.310614
 14H   1s         0.151054  0.031332
 14H   2s         0.398067  1.198456
 14H   3s        -0.217792  0.178163
 14H   1pz        0.000000 -0.000000
 14H   1px        0.141618 -0.111876
 14H   1py       -0.086587  0.048838
 14H   2pz        0.000000  0.000000
 14H   2px        0.302820  0.269828
 14H   2py       -0.184691 -0.073773
 14H   1dz2      -0.095286  0.095287
 14H   1dxz       0.000000 -0.000000
 14H   1dyz      -0.000000  0.000000
 14H   1dx2y2     0.059926 -0.027193
 14H   1dxy      -0.110258  0.048369
 15H   1s        -0.224081 -0.291123
 15H   2s        -0.534108 -1.330487
 15H   3s         0.249898  0.140477
 15H   1pz       -0.000000  0.000000
 15H   1px        0.013752  0.020312
 15H   1py        0.150496 -0.144390
 15H   2pz       -0.000000 -0.000000
 15H   2px        0.003649  0.039381
 15H   2py        0.354564  0.304169
 15H   1dz2       0.071217 -0.135987
 15H   1dxz      -0.000000  0.000000
 15H   1dyz       0.000000 -0.000000
 15H   1dx2y2     0.104327 -0.101796
 15H   1dxy      -0.011873 -0.020361
 16H   1s         0.224081  0.291123
 16H   2s         0.534108  1.330486
 16H   3s        -0.249898 -0.140477
 16H   1pz        0.000000  0.000000
 16H   1px       -0.013752 -0.020312
 16H   1py        0.150496 -0.144390
 16H   2pz       -0.000000 -0.000000
 16H   2px       -0.003649 -0.039381
 16H   2py        0.354564  0.304169
 16H   1dz2      -0.071217  0.135987
 16H   1dxz       0.000000 -0.000000
 16H   1dyz      -0.000000  0.000000
 16H   1dx2y2    -0.104326  0.101796
 16H   1dxy      -0.011873 -0.020361
 17H   1s        -0.151054 -0.031332
 17H   2s        -0.398068 -1.198456
 17H   3s         0.217792 -0.178163
 17H   1pz       -0.000000  0.000000
 17H   1px       -0.141618  0.111876
 17H   1py       -0.086587  0.048838
 17H   2pz       -0.000000 -0.000000
 17H   2px       -0.302820 -0.269828
 17H   2py       -0.184691 -0.073773
 17H   1dz2       0.095286 -0.095287
 17H   1dxz      -0.000000  0.000000
 17H   1dyz      -0.000000 -0.000000
 17H   1dx2y2    -0.059926  0.027193
 17H   1dxy      -0.110258  0.048369
 18H   1s        -0.085063  0.445470
 18H   2s        -0.454336  1.787197
 18H   3s         0.158763 -0.277230
 18H   1pz       -0.000000 -0.000000
 18H   1px        0.000000 -0.000000
 18H   1py        0.236326  0.184506
 18H   2pz        0.000000  0.000000
 18H   2px        0.000000  0.000000
 18H   2py        0.420873 -0.398652
 18H   1dz2       0.140878  0.184529
 18H   1dxz      -0.000000 -0.000000
 18H   1dyz       0.000000  0.000000
 18H   1dx2y2     0.180653  0.145509
 18H   1dxy      -0.000000  0.000000
 19H   1s         0.085063 -0.445470
 19H   2s         0.454334 -1.787197
 19H   3s        -0.158762  0.277230
 19H   1pz        0.000000  0.000000
 19H   1px       -0.000000  0.000000
 19H   1py        0.236326  0.184506
 19H   2pz        0.000000 -0.000000
 19H   2px       -0.000000 -0.000000
 19H   2py        0.420872 -0.398652
 19H   1dz2      -0.140878 -0.184529
 19H   1dxz      -0.000000 -0.000000
 19H   1dyz       0.000000  0.000000
 19H   1dx2y2    -0.180653 -0.145509
 19H   1dxy      -0.000000  0.000000
 20H   1s        -0.224081 -0.291123
 20H   2s        -0.534109 -1.330487
 20H   3s         0.249899  0.140477
 20H   1pz        0.000000 -0.000000
 20H   1px       -0.013752 -0.020312
 20H   1py        0.150497 -0.144390
 20H   2pz        0.000000  0.000000
 20H   2px       -0.003649 -0.039381
 20H   2py        0.354566  0.304168
 20H   1dz2       0.071218 -0.135987
 20H   1dxz       0.000000 -0.000000
 20H   1dyz      -0.000000  0.000000
 20H   1dx2y2     0.104327 -0.101797
 20H   1dxy       0.011873  0.020361
 21H   1s         0.151055  0.031332
 21H   2s         0.398067  1.198456
 21H   3s        -0.217793  0.178163
 21H   1pz        0.000000 -0.000000
 21H   1px       -0.141619  0.111876
 21H   1py       -0.086588  0.048838
 21H   2pz        0.000000  0.000000
 21H   2px       -0.302821 -0.269828
 21H   2py       -0.184692 -0.073773
 21H   1dz2      -0.095286  0.095287
 21H   1dxz      -0.000000  0.000000
 21H   1dyz      -0.000000 -0.000000
 21H   1dx2y2     0.059926 -0.027193
 21H   1dxy       0.110259 -0.048370
 22H   1s        -0.151055 -0.031332
 22H   2s        -0.398067 -1.198457
 22H   3s         0.217793 -0.178163
 22H   1pz       -0.000000  0.000000
 22H   1px        0.141619 -0.111876
 22H   1py       -0.086588  0.048838
 22H   2pz       -0.000000 -0.000000
 22H   2px        0.302821  0.269828
 22H   2py       -0.184692 -0.073773
 22H   1dz2       0.095286 -0.095287
 22H   1dxz       0.000000 -0.000000
 22H   1dyz      -0.000000  0.000000
 22H   1dx2y2    -0.059926  0.027193
 22H   1dxy       0.110259 -0.048370
 23H   1s         0.224081  0.291123
 23H   2s         0.534109  1.330486
 23H   3s        -0.249898 -0.140477
 23H   1pz        0.000000 -0.000000
 23H   1px        0.013752  0.020312
 23H   1py        0.150497 -0.144390
 23H   2pz        0.000000  0.000000
 23H   2px        0.003649  0.039381
 23H   2py        0.354566  0.304168
 23H   1dz2      -0.071218  0.135987
 23H   1dxz      -0.000000  0.000000
 23H   1dyz       0.000000 -0.000000
 23H   1dx2y2    -0.104327  0.101796
 23H   1dxy       0.011873  0.020361


-------
TIMINGS
-------

Total SCF time: 0 days 0 hours 3 min 50 sec 

Total time                  ....     230.507 sec
Sum of individual times     ....     230.515 sec  (100.0%)

SCF preparation             ....       0.168 sec  (  0.1%)
Fock matrix formation       ....     229.564 sec  ( 99.6%)
  Startup                   ....       0.056 sec  (  0.0% of F)
  Coulomb+Exchange Fock     ....     229.468 sec  (100.0% of F)
Diagonalization             ....       0.000 sec  (  0.0%)
Density matrix formation    ....       0.104 sec  (  0.0%)
Total Energy calculation    ....       0.063 sec  (  0.0%)
Population analysis         ....       0.000 sec  (  0.0%)
Orbital Transformation      ....       0.109 sec  (  0.0%)
Orbital Orthonormalization  ....       0.000 sec  (  0.0%)
DIIS solution               ....       0.330 sec  (  0.1%)
SOSCF solution              ....       0.177 sec  (  0.1%)
Finished LeanSCF after 230.7 sec

Maximum memory used throughout the entire LEANSCF-calculation: 54.0 MB

-------------------------   --------------------
FINAL SINGLE POINT ENERGY      -536.162617723391
-------------------------   --------------------



           ************************************************************
           *        Program running with 8 parallel MPI-processes     *
           *              working on a common directory               *
           ************************************************************

------------------------------------------------------------------------------
                              ORCA PROPERTY CALCULATIONS
------------------------------------------------------------------------------

GBWName                                 ... orca.gbw
Number of atoms                         ...     24
Number of basis functions               ...    672
Max core memory                         ...   1024 MB

Electric properties:
Dipole moment                           ... YES
Quadrupole moment                       ...  NO
Static polarizability (Dipole/Dipole)   ...  NO
Static polarizability (Dipole/Quad.)    ...  NO
Static polarizability (Quad./Quad.)     ...  NO
Static polarizability (Velocity)        ...  NO

Atomic electric properties:
Dipole moment                           ...  NO
Quadrupole moment                       ...  NO
Static polarizability                   ...  NO

Choice of electric origin               ... Center of mass
Position of electric origin             ...     0.000000    -0.000000     0.000000

General magnetic properties:
Magnetizability                         ...  NO

EPR properties:
g-Tensor (aka g-matrix)                 ...  NO
Zero-Field splitting spin-orbit         ...  NO
Zero-field splitting spin-spin          ...  NO
Hyperfine couplings                     ...  NO (   0 nuclei)
Quadrupole couplings                    ...  NO (   0 nuclei)
Contact density                         ...  NO (   0 nuclei)

NMR properties:
Chemical shifts                         ...  NO (   0 nuclei)
Spin-rotation constants                 ...  NO (   0 nuclei)
Spin-spin couplings                     ...  NO (   0 nuclei,    0 pairs)

Choice of magnetic origin               ... GIAO
Position of magnetic origin             ...     0.000000     0.000000     0.000000

Properties with geometric perturbations:
SCF Hessian                             ...  NO
IR spectrum                             ...  NO
VCD spectrum                            ...  NO
X-ray spectroscopy properties:
SCF XES/XAS/RIXS spectra                ...  NO


-------------
DIPOLE MOMENT
-------------

Method             : SCF
Type of density    : Electron Density
Multiplicity       :   1
Irrep              :   0
Energy             :  -536.1626177233913495 Eh
Relativity type    : 
Basis              : AO
                                X                 Y                 Z
Electronic contribution:      0.000000255      -0.000000161       0.000000849
Nuclear contribution   :     -0.000000204       0.000000161      -0.000001042
                        -----------------------------------------
Total Dipole Moment    :      0.000000051       0.000000000      -0.000000194
                        -----------------------------------------
Magnitude (a.u.)       :      0.000000200
Magnitude (Debye)      :      0.000000509



--------------------
Rotational spectrum 
--------------------
 
Rotational constants in cm-1:             0.071795             0.015152             0.012512 
Rotational constants in MHz :          2152.348283           454.247650           375.086578 

Dipole components along the rotational axes: 
x,y,z [a.u.] :     0.000000    -0.000000    -0.000000 
x,y,z [Debye]:     0.000000    -0.000000    -0.000000 

 

Dipole moment calculation done in   0.0 sec 

Maximum memory used throughout the entire PROP-calculation: 47.2 MB

--------------------------------
SUGGESTED CITATIONS FOR THIS RUN
--------------------------------

Below you find a list of papers that are relevant to this ORCA run
We neither can nor want to force you to cite these papers, but we appreciate if you do
You receive ORCA, which is the product of decades of hard work by many enthusiastic individuals, for free
The only thing we kindly ask in return is that you cite our papers,
We deeply appreciate it, if you show your appreciation for ORCA by not just citing the generic ORCA reference.

Please note that relegating all ORCA citations to the supporting information does *not* help us.
SI sections are not indexed - citations you put there will not count into any citation statistics
But we need these citations in order to attract the funding resources that allow us to do what we are doing

Therefore, if you are a happy ORCA user, please consider citing a few of the papers listed below in the main body of your paper

In addition to the list printed below, the program has created the file orca.bibtex that contains the list in bibtex format
You can import this file easily into all common literature databanks and citation aid programs


List of essential papers. We consider these as the minimum necessary citations

  1. Neese,F.
     Software update: the ORCA program system, version 5.0
     WIRES Comput. Molec. Sci., 2022 12(1)e1606
     doi.org/10.1002/wcms.1606

List of papers to cite with high priority. The work reported in these papers was absolutely
necessary for this run to complete.
Our perspective: the developers of density functionals and basis sets usually get cited in chemistry papers
Good! But without the algorithms to do something with them, the functionals or basis sets would not do anything.
Hence, in our opinion, the algorithm design and method developments papers are equally worthy of getting cited

  1. Neese,F.
     The SHARK Integral Generation and Digestion System
     J. Comp. Chem., 2022  1-16
     doi.org/10.1002/jcc.26942

List of suggested additional citations. These are papers that are important in the 'surrounding' of 
of this run, or papers that preceded the highly important papers. If you like your results we are grateful for a citation.

  1. Neese,F.
     The ORCA program system
     WIRES Comput. Molec. Sci., 2012 2(1)73-78
     doi.org/10.1002/wcms.81
  2. Neese,F.
     Software update: the ORCA program system, version 4.0
     WIRES Comput. Molec. Sci., 2018 8(1)1-6
     doi.org/10.1002/wcms.1327
  3. Neese,F.; Wennmohs,F.; Becker,U.; Riplinger,C.
     The ORCA quantum chemistry program package
     J. Chem. Phys., 2020 152 Art. No. L224108
     doi.org/10.1063/5.0004608

List of optional additional citations

  1. Neese,F.
     Approximate second-order SCF convergence for spin unrestricted wavefunctions
     Chem. Phys. Lett., 2000 325(1-3)93-98
     doi.org/10.1016/s0009-2614(00)00662-x

Timings for individual modules:

Sum of individual times          ...      234.997 sec (=   3.917 min)
Startup calculation              ...        2.717 sec (=   0.045 min)   1.2 %
SCF iterations                   ...      231.890 sec (=   3.865 min)  98.7 %
Property calculations            ...        0.390 sec (=   0.007 min)   0.2 %
                             ****ORCA TERMINATED NORMALLY****
TOTAL RUN TIME: 0 days 0 hours 3 minutes 55 seconds 420 msec
