
                                 *****************
                                 * O   R   C   A *
                                 *****************

                                            #,                                       
                                            ###                                      
                                            ####                                     
                                            #####                                    
                                            ######                                   
                                           ########,                                 
                                     ,,################,,,,,                         
                               ,,#################################,,                 
                          ,,##########################################,,             
                       ,#########################################, ''#####,          
                    ,#############################################,,   '####,        
                  ,##################################################,,,,####,       
                ,###########''''           ''''###############################       
              ,#####''   ,,,,##########,,,,          '''####'''          '####       
            ,##' ,,,,###########################,,,                        '##       
           ' ,,###''''                  '''############,,,                           
         ,,##''                                '''############,,,,        ,,,,,,###''
      ,#''                                            '''#######################'''  
     '                                                          ''''####''''         
             ,#######,   #######,   ,#######,      ##                                
            ,#'     '#,  ##    ##  ,#'     '#,    #''#        ,####,   ,####,        
            ##       ##  ##   ,#'  ##            #'  '#       #'       #'  '#        
            ##       ##  #######   ##           ,######,      #####,   #    #        
            '#,     ,#'  ##    ##  '#,     ,#' ,#      #,     #,   #   #,  ,#        
             '#######'   ##     ##  '#######'  #'      '#     '####' # '####'        



                #########################################################
                #                        -***-                          #
                #          Department of theory and spectroscopy        #
                #                                                       #
                #                      Frank Neese                      #
                #                                                       #
                #     Directorship, Architecture, Infrastructure        #
                #                    SHARK, DRIVERS                     #
                #        Core code/Algorithms in most modules           #
                #                                                       #
                #        Max Planck Institute fuer Kohlenforschung      #
                #                Kaiser Wilhelm Platz 1                 #
                #                 D-45470 Muelheim/Ruhr                 #
                #                      Germany                          #
                #                                                       #
                #                  All rights reserved                  #
                #                        -***-                          #
                #########################################################


                         Program Version 6.0.1  -  RELEASE   -


 With contributions from (in alphabetic order):
[Max-Planck-Institut fuer Kohlenforschung]                               
  Daniel Aravena         : Magnetic Suceptibility                        
  Michael Atanasov       : Ab Initio Ligand Field Theory (pilot matlab implementation)
  Alexander A. Auer      : GIAO ZORA, VPT2 properties, NMR spectrum      
  Ute Becker             : All parallelization in ORCA, NUMFREQ, NUMCALC 
  Giovanni Bistoni       : ED, misc. LED, open-shell LED, HFLD           
  Martin Brehm           : Molecular dynamics                            
  Dmytro Bykov           : pre 5.0 version of the SCF Hessian            
  Marcos Casanova-Páez   : Triplet and SCS-CIS(D). UHF-(DLPNO)-IP/EA/STEOM-CCSD. UHF-CVS-IP/STEOM-CCSD   
  Vijay G. Chilkuri      : MRCI spin determinant printing, contributions to CSF-ICE 
  Pauline Colinet        : FMM embedding                                 
  Dipayan Datta          : RHF DLPNO-CCSD density                        
  Achintya Kumar Dutta   : EOM-CC, STEOM-CC                              
  Nicolas Foglia         : Exact transition moments, OPA infrastructure, MCD improvements    
  Dmitry Ganyushin       : Spin-Orbit,Spin-Spin,Magnetic field MRCI      
  Miquel Garcia-Rates    : C-PCM and meta-GGA Hessian, CCSD/C-PCM, Gaussian charge scheme 
  Tiago L. C. Gouveia    : GS-ROHF, GS-ROCIS                             
  Yang Guo               : DLPNO-NEVPT2, F12-NEVPT2, CIM, IAO-localization        
  Andreas Hansen         : Spin unrestricted coupled pair/coupled cluster methods 
  Ingolf Harden          : AUTO-CI MPn and infrastructure                
  Benjamin Helmich-Paris : MC-RPA, TRAH-(SCF,CASSCF), AVAS, COSX integrals, SCF dyn. polar. 
  Lee Huntington         : MR-EOM, pCC                                   
  Robert Izsak           : Overlap fitted RIJCOSX, COSX-SCS-MP3, EOM     
  Riya Kayal             : Wick's Theorem for AUTO-CI, AUTO-CI UHF-CCSDT 
  Emily Kempfer          : AUTO-CI, RHF CISDT and CCSDT                  
  Christian Kollmar      : KDIIS, OOCD, Brueckner-CCSD(T), CCSD density, CASPT2, CASPT2-K, improved NEVPT2 
  Axel Koslowski         : Symmetry handling                             
  Simone Kossmann        : meta-GGA functionals, TD-DFT gradient, OOMP2, (MP2 Hessian; deprecated post 5.0) 
  Lucas Lang             : DCDCAS                                        
  Marvin Lechner         : AUTO-CI (C++ implementation), FIC-MRCC        
  Spencer Leger          : CASSCF response                               
  Dagmar Lenk            : GEPOL surface, SMD, ORCA-2-JSON               
  Dimitrios Liakos       : Extrapolation schemes; Compound Job, initial MDCI parallelization 
  Dimitrios Manganas     : Further ROCIS development; embedding schemes. LFT, Crystal Embedding 
  Dimitrios Pantazis     : SARC Basis sets                               
  Anastasios Papadopoulos: AUTO-CI, single reference methods and gradients 
  Taras Petrenko         : pre 6.0 DFT Hessian and TD-DFT gradient, (ASA, deprecated), ECA, 1-Electron XAS/XES, NRVS 
  Peter Pinski           : DLPNO-MP2, DLPNO-MP2 Gradient                 
  Christoph Reimann      : Effective Core Potentials                     
  Marius Retegan         : Local ZFS, SOC                                
  Christoph Riplinger    : Optimizer, TS searches, QM/MM, DLPNO-CCSD(T), (RO)-DLPNO pert. Triples 
  Michael Roemelt        : Original ROCIS implementation                 
  Masaaki Saitow         : Open-shell DLPNO-CCSD energy and density      
  Barbara Sandhoefer     : DKH picture change effects                    
  Kantharuban Sivalingam : CASSCF convergence/infrastructure, NEVPT2 and variants, FIC-MRCI 
  Bernardo de Souza      : ESD, SOC TD-DFT                               
  Georgi L. Stoychev     : AutoAux, RI-MP2 NMR, DLPNO-MP2 response, X2C  
  Van Anh Tran           : RI-MP2 g-tensors                              
  Willem Van den Heuvel  : Paramagnetic NMR                              
  Zikuan Wang            : NOTCH, Electric field optimization            
  Frank Wennmohs         : Technical directorship and infrastructure     
  Hang Xu                : AUTO-CI-Response properties                   
                                                                         
[FACCTs GmbH]                                                            
  Markus Bursch, Miquel Garcia-Rates, Christoph Riplinger, Bernardo de Souza, Georgi L. Stoychev 
                                                                 
  APM, Basis sets (HGBS, AHGBS, def-TZVP (Ac-Lr), def2-XVPD (La-Lu)), CI-OPT, improved COSX, DLPNO-Multilevel,           
  DOCKER, DRACO, updates on ESD, GOAT, IRC, LR-CPCM, MBIS, meta-GGA TD-DFT gradient, ML-optimized integration grids, 
  MM, NACMEs, nearIR, NEB, NEB-TS, NL-DFT gradient (VV10), 2- and 3-layer-ONIOM, interface openCOSMO-RS, QMMM,   
  Crystal-QMMM, SF, symmetry and pop. for TD-DFT, r2SCAN hybrids, SOLVATOR                                   
                                                                         
[Other institutions]                                                     
  V. Asgeirsson          : NEB                                           
  Christoph Bannwarth    : sTDA-DFT, sTD-DFT, PBEh-3c, B97-3c, D3        
  Sebastian Ehlert       : rSCAN, r2SCAN, r2SCAN-3c, D4, dhf basis sets  
  Marvin Friede          : D4 for Fr, Ra, Ac-Lr                          
  Lars Goerigk           : TD-DFT with DH, B97 family of functionals     
  Stefan Grimme          : VdW corrections, initial TS optimization, DFT functionals, gCP, sTDA/sTD-DF 
  Waldemar Hujo          : DFT-NL                                        
  H. Jonsson             : NEB                                           
  Holger Kruse           : gCP                                           
  Marcel Mueller         : wB97X-3c, vDZP basis set                      
  Hagen Neugebauer       : wr2SCAN                                       
  Tobias Risthaus        : range-separated hybrid DFT                    
  Lukas Wittmann         : regularized MP2, r2SCAN double-hybrids, wr2SCAN        
                                                                         
We gratefully acknowledge several colleagues who have allowed us to      
interface, adapt or use parts of their codes:                            
  Ed Valeev, F. Pavosevic, A. Kumar             : LibInt (2-el integral package), F12 methods 
  Garnet Chan, S. Sharma, J. Yang, R. Olivares  : DMRG                   
  Ulf Ekstrom                                   : XCFun DFT Library      
  Mihaly Kallay                                 : mrcc  (arbitrary order and MRCC methods)
  Frank Weinhold                                : gennbo (NPA and NBO analysis)           
  Simon Mueller                                 : openCOSMO-RS                            
  Christopher J. Cramer and Donald G. Truhlar   : smd solvation model                     
  S Lehtola, MJT Oliveira, MAL Marques          : LibXC Library                           
  Liviu Ungur et al                             : ANISO software                          


 Your calculation uses the libint2 library for the computation of 2-el integrals
 For citations please refer to: http://libint.valeyev.net

 Your ORCA version has been built with support for libXC version: 6.2.2
 For citations please refer to: https://libxc.gitlab.io

 This ORCA versions uses:
   CBLAS   interface :  Fast vector & matrix operations
   LAPACKE interface :  Fast linear algebra routines
   SCALAPACK package :  Parallel linear algebra routines
   Shared memory     :  Shared parallel matrices




***************************************
The coordinates will be read from file: geom.xyz
***************************************


================================================================================

----- Orbital basis set information -----
Your calculation utilizes the basis: cc-pVDZ 
       H, B-Ne : Obtained from the ccRepo (grant-hill.group.shef.ac.uk/ccrepo) Feb. 2017
                 T. H. Dunning, Jr., J. Chem. Phys. 90, 1007 (1989)
            He : Obtained from the ccRepo (grant-hill.group.shef.ac.uk/ccrepo) Feb. 2017
                 D. E. Woon, T. H. Dunning, Jr., J. Chem. Phys. 100, 2975 (1994)
  Li-Be, Na-Mg : Obtained from the ccRepo (grant-hill.group.shef.ac.uk/ccrepo) Feb. 2017
                 B. P. Prascher, D. E. Woon, K. A. Peterson, T. H. Dunning, Jr., A. K. Wilson, Theor. Chem. Acc. 128, 69 (2011)
         Al-Ar : Obtained from the ccRepo (grant-hill.group.shef.ac.uk/ccrepo) Feb. 2017
                 D. E. Woon, T. H. Dunning, Jr., J. Chem. Phys. 98, 1358 (1993)
            Ca : Obtained from the Peterson Research Group Website (tyr0.chem.wsu.edu/~kipeters) Feb. 2017
                 J. Koput, K. A. Peterson, J. Phys. Chem. 106, 9595 (2002)
         Sc-Zn : Obtained from the ccRepo (grant-hill.group.shef.ac.uk/ccrepo) Feb. 2017
                 N. B. Balabanov, K. A. Peterson, J. Chem. Phys. 123, 064107 (2005)
                 N. B. Balabanov, K. A. Peterson, J. Chem. Phys. 125, 074110 (2006)
         Ga-Kr : Obtained from the ccRepo (grant-hill.group.shef.ac.uk/ccrepo) Feb. 2017
                 A. K. Wilson, D. E. Woon, K. A. Peterson, T. H. Dunning, Jr., J. Chem. Phys. 110, 7667 (1999)

================================================================================
                                        WARNINGS
                       Please study these warnings very carefully!
================================================================================

WARNING: Old DensityContainer found on disk!
         Will remove this file - 
         If you want to keep old densities, please start your calculation with a different basename. 


WARNING: The frozen-core approximation for MP2-gradient calculations is turned on by default.

WARNING: Geometry Optimization
  ===> : Switching off AutoStart
         For restart on a previous wavefunction, please use MOREAD

WARNING: Post HF methods need fully converged wavefunctions
  ===> : Setting SCFConvForced true
         You can overwrite this default with %scf ConvForced false 


================================================================================
                                       INPUT FILE
================================================================================
NAME = orca.inp
|  1> ! RHF cc-pvdz tightscf nopop MP2 tightopt PAL8
|  2> * xyzfile 0 1 geom.xyz
|  3> 
|  4>                          ****END OF INPUT****
================================================================================

                       *****************************
                       * Geometry Optimization Run *
                       *****************************

Geometry optimization settings:
Update method            Update   .... BFGS
Choice of coordinates    CoordSys .... (2022) Redundant Internals
Initial Hessian          InHess   .... Almloef's Model
Max. no of cycles        MaxIter  .... 72

Convergence Tolerances:
Energy Change            TolE     ....  1.0000e-06 Eh
Max. Gradient            TolMAXG  ....  1.0000e-04 Eh/bohr
RMS Gradient             TolRMSG  ....  3.0000e-05 Eh/bohr
Max. Displacement        TolMAXD  ....  1.0000e-03 bohr
RMS Displacement         TolRMSD  ....  6.0000e-04 bohr
Strict Convergence                .... False

------------------------------------------------------------------------------
                        ORCA OPTIMIZATION COORDINATE SETUP
------------------------------------------------------------------------------

The optimization will be done in redundant internal coordinates (2022)
Making redundant internal coordinates   ...  (2022 redundants) done
Evaluating the initial hessian          ...  (Almloef) done
Evaluating the coordinates              ...  done
Calculating the B-matrix                .... done
Calculating the G-matrix                .... done
Diagonalizing the G-matrix              .... done
The first mode is                       ....   66
The number of degrees of freedom        ....   66

    -----------------------------------------------------------------
                    Redundant Internal Coordinates


    -----------------------------------------------------------------
         Definition                    Initial Value    Approx d2E/dq
    -----------------------------------------------------------------
      1. B(C   1,C   0)                  1.3566         0.706324   
      2. B(C   2,C   1)                  1.4316         0.536226   
      3. B(C   3,C   2)                  1.4282         0.543022   
      4. B(C   4,C   3)                  1.4316         0.536230   
      5. B(C   5,C   4)                  1.3566         0.706325   
      6. B(C   5,C   0)                  1.4283         0.542742   
      7. B(C   6,C   2)                  1.3926         0.618949   
      8. B(C   7,C   6)                  1.3926         0.618946   
      9. B(C   8,C   3)                  1.3926         0.618948   
     10. B(C   9,C   8)                  1.3926         0.618947   
     11. B(C   9,C   7)                  1.4282         0.543023   
     12. B(C  10,C   7)                  1.4316         0.536225   
     13. B(C  11,C  10)                  1.3566         0.706321   
     14. B(C  12,C  11)                  1.4283         0.542741   
     15. B(C  13,C   9)                  1.4316         0.536225   
     16. B(C  13,C  12)                  1.3566         0.706321   
     17. B(H  14,C   0)                  1.0846         0.367255   
     18. B(H  15,C   1)                  1.0855         0.366142   
     19. B(H  16,C   4)                  1.0855         0.366144   
     20. B(H  17,C   5)                  1.0846         0.367256   
     21. B(H  18,C   6)                  1.0864         0.364956   
     22. B(H  19,C   8)                  1.0864         0.364956   
     23. B(H  20,C  10)                  1.0855         0.366143   
     24. B(H  21,C  11)                  1.0846         0.367252   
     25. B(H  22,C  12)                  1.0846         0.367253   
     26. B(H  23,C  13)                  1.0855         0.366142   
     27. A(C   1,C   0,H  14)          120.2234         0.362025   
     28. A(C   5,C   0,H  14)          119.3416         0.346221   
     29. A(C   1,C   0,C   5)          120.4350         0.433853   
     30. A(C   0,C   1,C   2)          120.8747         0.432911   
     31. A(C   0,C   1,H  15)          120.6591         0.361837   
     32. A(C   2,C   1,H  15)          118.4662         0.345342   
     33. A(C   1,C   2,C   6)          122.0550         0.422785   
     34. A(C   3,C   2,C   6)          119.2548         0.423737   
     35. A(C   1,C   2,C   3)          118.6902         0.413042   
     36. A(C   4,C   3,C   8)          122.0550         0.422785   
     37. A(C   2,C   3,C   8)          119.2548         0.423737   
     38. A(C   2,C   3,C   4)          118.6902         0.413043   
     39. A(C   3,C   4,C   5)          120.8748         0.432912   
     40. A(C   3,C   4,H  16)          118.4662         0.345343   
     41. A(C   5,C   4,H  16)          120.6590         0.361837   
     42. A(C   0,C   5,H  17)          119.3415         0.346221   
     43. A(C   0,C   5,C   4)          120.4351         0.433853   
     44. A(C   4,C   5,H  17)          120.2234         0.362025   
     45. A(C   2,C   6,H  18)          119.2548         0.353609   
     46. A(C   7,C   6,H  18)          119.2548         0.353608   
     47. A(C   2,C   6,C   7)          121.4904         0.433801   
     48. A(C   6,C   7,C  10)          122.0550         0.422784   
     49. A(C   6,C   7,C   9)          119.2549         0.423737   
     50. A(C   9,C   7,C  10)          118.6901         0.413042   
     51. A(C   3,C   8,C   9)          121.4905         0.433801   
     52. A(C   9,C   8,H  19)          119.2548         0.353608   
     53. A(C   3,C   8,H  19)          119.2547         0.353609   
     54. A(C   7,C   9,C   8)          119.2547         0.423737   
     55. A(C   8,C   9,C  13)          122.0550         0.422784   
     56. A(C   7,C   9,C  13)          118.6903         0.413042   
     57. A(C  11,C  10,H  20)          120.6592         0.361837   
     58. A(C   7,C  10,H  20)          118.4661         0.345342   
     59. A(C   7,C  10,C  11)          120.8747         0.432911   
     60. A(C  12,C  11,H  21)          119.3416         0.346220   
     61. A(C  10,C  11,H  21)          120.2232         0.362024   
     62. A(C  10,C  11,C  12)          120.4352         0.433852   
     63. A(C  11,C  12,C  13)          120.4350         0.433852   
     64. A(C  13,C  12,H  22)          120.2234         0.362024   
     65. A(C  11,C  12,H  22)          119.3416         0.346220   
     66. A(C   9,C  13,C  12)          120.8747         0.432911   
     67. A(C  12,C  13,H  23)          120.6591         0.361837   
     68. A(C   9,C  13,H  23)          118.4662         0.345342   
     69. D(H  15,C   1,C   0,H  14)     -0.0001         0.035191   
     70. D(H  15,C   1,C   0,C   5)   -180.0000         0.035191   
     71. D(C   2,C   1,C   0,H  14)   -179.9999         0.035191   
     72. D(C   2,C   1,C   0,C   5)      0.0002         0.035191   
     73. D(C   3,C   2,C   1,C   0)     -0.0003         0.019639   
     74. D(C   3,C   2,C   1,H  15)    179.9999         0.019639   
     75. D(C   6,C   2,C   1,C   0)   -179.9998         0.019639   
     76. D(C   6,C   2,C   1,H  15)      0.0004         0.019639   
     77. D(C   8,C   3,C   2,C   6)     -0.0005         0.020155   
     78. D(C   4,C   3,C   2,C   6)    179.9999         0.020155   
     79. D(C   4,C   3,C   2,C   1)      0.0005         0.020155   
     80. D(C   8,C   3,C   2,C   1)   -180.0000         0.020155   
     81. D(H  16,C   4,C   3,C   2)    179.9995         0.019639   
     82. D(C   5,C   4,C   3,C   2)     -0.0005         0.019639   
     83. D(C   5,C   4,C   3,C   8)    179.9999         0.019639   
     84. D(H  16,C   4,C   3,C   8)      0.0000         0.019639   
     85. D(H  17,C   5,C   4,H  16)     -0.0000         0.035191   
     86. D(C   0,C   5,C   4,H  16)   -179.9996         0.035191   
     87. D(C   0,C   5,C   4,C   3)      0.0004         0.035191   
     88. D(H  17,C   5,C   0,H  14)      0.0002         0.020134   
     89. D(H  17,C   5,C   0,C   1)   -179.9999         0.020134   
     90. D(H  17,C   5,C   4,C   3)   -180.0000         0.035191   
     91. D(C   4,C   5,C   0,H  14)    179.9999         0.020134   
     92. D(C   4,C   5,C   0,C   1)     -0.0003         0.020134   
     93. D(H  18,C   6,C   2,C   3)   -179.9996         0.026504   
     94. D(H  18,C   6,C   2,C   1)     -0.0002         0.026504   
     95. D(C   7,C   6,C   2,C   3)      0.0002         0.026504   
     96. D(C   7,C   6,C   2,C   1)    179.9997         0.026504   
     97. D(C  10,C   7,C   6,C   2)   -179.9996         0.026504   
     98. D(C   9,C   7,C   6,H  18)   -179.9998         0.026504   
     99. D(C   9,C   7,C   6,C   2)      0.0004         0.026504   
    100. D(C  10,C   7,C   6,H  18)      0.0002         0.026504   
    101. D(H  19,C   8,C   3,C   4)     -0.0001         0.026504   
    102. D(H  19,C   8,C   3,C   2)   -179.9997         0.026504   
    103. D(C   9,C   8,C   3,C   4)    179.9998         0.026504   
    104. D(C   9,C   8,C   3,C   2)      0.0002         0.026504   
    105. D(C  13,C   9,C   8,H  19)     -0.0001         0.026504   
    106. D(C   7,C   9,C   8,H  19)   -179.9997         0.026504   
    107. D(C   7,C   9,C   8,C   3)      0.0004         0.026504   
    108. D(C  13,C   9,C   7,C  10)     -0.0004         0.020155   
    109. D(C  13,C   9,C   7,C   6)    179.9997         0.020155   
    110. D(C  13,C   9,C   8,C   3)   -180.0000         0.026504   
    111. D(C   8,C   9,C   7,C  10)    179.9993         0.020155   
    112. D(C   8,C   9,C   7,C   6)     -0.0007         0.020155   
    113. D(H  20,C  10,C   7,C   9)   -179.9999         0.019639   
    114. D(H  20,C  10,C   7,C   6)      0.0001         0.019639   
    115. D(C  11,C  10,C   7,C   9)      0.0002         0.019639   
    116. D(C  11,C  10,C   7,C   6)   -179.9999         0.019639   
    117. D(H  21,C  11,C  10,H  20)      0.0001         0.035191   
    118. D(H  21,C  11,C  10,C   7)   -180.0000         0.035191   
    119. D(C  12,C  11,C  10,H  20)   -179.9997         0.035191   
    120. D(C  12,C  11,C  10,C   7)      0.0002         0.035191   
    121. D(H  22,C  12,C  11,H  21)      0.0001         0.020134   
    122. D(H  22,C  12,C  11,C  10)    179.9999         0.020134   
    123. D(C  13,C  12,C  11,H  21)    179.9998         0.020134   
    124. D(C  13,C  12,C  11,C  10)     -0.0004         0.020134   
    125. D(C   9,C  13,C  12,H  22)    179.9999         0.035191   
    126. D(C   9,C  13,C  12,C  11)      0.0002         0.035191   
    127. D(H  23,C  13,C   9,C   8)      0.0006         0.019639   
    128. D(H  23,C  13,C   9,C   7)   -179.9997         0.019639   
    129. D(C  12,C  13,C   9,C   8)   -179.9995         0.019639   
    130. D(H  23,C  13,C  12,C  11)   -179.9999         0.035191   
    131. D(C  12,C  13,C   9,C   7)      0.0002         0.019639   
    132. D(H  23,C  13,C  12,H  22)     -0.0002         0.035191   
    -----------------------------------------------------------------

Number of atoms                         .... 24
Number of degrees of freedom            .... 132


         *************************************************************
         *                GEOMETRY OPTIMIZATION CYCLE   1            *
         *************************************************************
---------------------------------
CARTESIAN COORDINATES (ANGSTROEM)
---------------------------------
  C     -3.640476    0.714162   -0.000000
  C     -2.470799    1.401371   -0.000005
  C     -1.214947    0.714093   -0.000007
  C     -1.214946   -0.714092    0.000003
  C     -2.470796   -1.401370    0.000004
  C     -3.640474   -0.714163    0.000008
  C     -0.000002    1.394629   -0.000007
  C      1.214946    0.714092   -0.000002
  C     -0.000000   -1.394627    0.000001
  C      1.214947   -0.714092   -0.000005
  C      2.470797    1.401372    0.000006
  C      3.640475    0.714161    0.000008
  C      3.640476   -0.714164   -0.000003
  C      2.470798   -1.401373   -0.000007
  H     -4.585976    1.245653    0.000000
  H     -2.466555    2.486834   -0.000010
  H     -2.466552   -2.486831    0.000004
  H     -4.585973   -1.245654    0.000009
  H     -0.000002    2.480983   -0.000008
  H     -0.000000   -2.480981    0.000003
  H      2.466552    2.486833    0.000011
  H      4.585976    1.245656    0.000015
  H      4.585978   -1.245657   -0.000003
  H      2.466553   -2.486835   -0.000014

----------------------------
CARTESIAN COORDINATES (A.U.)
----------------------------
  NO LB      ZA    FRAG     MASS         X           Y           Z
   0 C     6.0000    0    12.011   -6.879503    1.349571   -0.000000
   1 C     6.0000    0    12.011   -4.669133    2.648208   -0.000009
   2 C     6.0000    0    12.011   -2.295917    1.349440   -0.000013
   3 C     6.0000    0    12.011   -2.295916   -1.349438    0.000005
   4 C     6.0000    0    12.011   -4.669128   -2.648206    0.000008
   5 C     6.0000    0    12.011   -6.879498   -1.349572    0.000014
   6 C     6.0000    0    12.011   -0.000003    2.635467   -0.000014
   7 C     6.0000    0    12.011    2.295914    1.349439   -0.000004
   8 C     6.0000    0    12.011   -0.000000   -2.635463    0.000002
   9 C     6.0000    0    12.011    2.295917   -1.349438   -0.000010
  10 C     6.0000    0    12.011    4.669131    2.648209    0.000012
  11 C     6.0000    0    12.011    6.879502    1.349569    0.000015
  12 C     6.0000    0    12.011    6.879503   -1.349575   -0.000006
  13 C     6.0000    0    12.011    4.669131   -2.648211   -0.000014
  14 H     1.0000    0     1.008   -8.666239    2.353943    0.000000
  15 H     1.0000    0     1.008   -4.661114    4.699434   -0.000019
  16 H     1.0000    0     1.008   -4.661108   -4.699430    0.000008
  17 H     1.0000    0     1.008   -8.666232   -2.353946    0.000018
  18 H     1.0000    0     1.008   -0.000004    4.688378   -0.000016
  19 H     1.0000    0     1.008   -0.000001   -4.688374    0.000006
  20 H     1.0000    0     1.008    4.661108    4.699434    0.000020
  21 H     1.0000    0     1.008    8.666239    2.353948    0.000029
  22 H     1.0000    0     1.008    8.666242   -2.353951   -0.000006
  23 H     1.0000    0     1.008    4.661109   -4.699438   -0.000027

--------------------------------
INTERNAL COORDINATES (ANGSTROEM)
--------------------------------
 C      0   0   0     0.000000000000     0.00000000     0.00000000
 C      1   0   0     1.356613723080     0.00000000     0.00000000
 C      2   1   0     1.431612711304   120.87474772     0.00000000
 C      3   2   1     1.428184637806   118.69018523     0.00000000
 C      4   3   2     1.431610721709   118.69017876     0.00000000
 C      5   4   3     1.356613649029   120.87476062     0.00000000
 C      3   2   1     1.392559579343   122.05503707   180.00023626
 C      7   3   2     1.392561081487   121.49040712   179.99966407
 C      4   3   2     1.392559925476   119.25478279   180.00001498
 C      9   4   3     1.392560419727   121.49050346     0.00000000
 C      8   7   3     1.431613357930   122.05502751   180.00040956
 C     11   8   7     1.356615178961   120.87468564   180.00013834
 C     12  11   8     1.428325733127   120.43516851     0.00000000
 C     13  12  11     1.356615009642   120.43501427     0.00000000
 H      1   2   3     1.084644032150   120.22340425   180.00008250
 H      2   1   3     1.085470624797   120.65909026   179.99981648
 H      5   4   3     1.085469273270   118.46620245   179.99954928
 H      6   5   4     1.084643644464   120.22338147   180.00003535
 H      7   3   2     1.086353843132   119.25477899     0.00000000
 H      9   4   3     1.086353621902   119.25473129   180.00031856
 H     11   8   7     1.085470070804   118.46609535     0.00000000
 H     12  11   8     1.084646271586   120.22320608   180.00003500
 H     13  12  11     1.084646174101   119.34160837   179.99992342
 H     14  13  12     1.085470577463   120.65912751   180.00011382

---------------------------
INTERNAL COORDINATES (A.U.)
---------------------------
 C      0   0   0     0.000000000000     0.00000000     0.00000000
 C      1   0   0     2.563628406140     0.00000000     0.00000000
 C      2   1   0     2.705355954206   120.87474772     0.00000000
 C      3   2   1     2.698877834127   118.69018523     0.00000000
 C      4   3   2     2.705352194416   118.69017876     0.00000000
 C      5   4   3     2.563628266205   120.87476062     0.00000000
 C      3   2   1     2.631556230127   122.05503707   180.00023626
 C      7   3   2     2.631559068768   121.49040712   179.99966407
 C      4   3   2     2.631556884223   119.25478279   180.00001498
 C      9   4   3     2.631557818222   121.49050346     0.00000000
 C      8   7   3     2.705357176150   122.05502751   180.00040956
 C     11   8   7     2.563631157357   120.87468564   180.00013834
 C     12  11   8     2.699144465642   120.43516851     0.00000000
 C     13  12  11     2.563630837391   120.43501427     0.00000000
 H      1   2   3     2.049680173556   120.22340425   180.00008250
 H      2   1   3     2.051242207282   120.65909026   179.99981648
 H      5   4   3     2.051239653266   118.46620245   179.99954928
 H      6   5   4     2.049679440936   120.22338147   180.00003535
 H      7   3   2     2.052911248053   119.25477899     0.00000000
 H      9   4   3     2.052910829989   119.25473129   180.00031856
 H     11   8   7     2.051241160388   118.46609535     0.00000000
 H     12  11   8     2.049684405476   120.22320608   180.00003500
 H     13  12  11     2.049684221256   119.34160837   179.99992342
 H     14  13  12     2.051242117834   120.65912751   180.00011382

---------------------
BASIS SET INFORMATION
---------------------
There are 2 groups of distinct atoms

 Group   1 Type C   : 17s4p1d contracted to 3s2p1d pattern {881/31/1}
 Group   2 Type H   : 4s1p contracted to 2s1p pattern {31/1}

Atom   0C    basis set group =>   1
Atom   1C    basis set group =>   1
Atom   2C    basis set group =>   1
Atom   3C    basis set group =>   1
Atom   4C    basis set group =>   1
Atom   5C    basis set group =>   1
Atom   6C    basis set group =>   1
Atom   7C    basis set group =>   1
Atom   8C    basis set group =>   1
Atom   9C    basis set group =>   1
Atom  10C    basis set group =>   1
Atom  11C    basis set group =>   1
Atom  12C    basis set group =>   1
Atom  13C    basis set group =>   1
Atom  14H    basis set group =>   2
Atom  15H    basis set group =>   2
Atom  16H    basis set group =>   2
Atom  17H    basis set group =>   2
Atom  18H    basis set group =>   2
Atom  19H    basis set group =>   2
Atom  20H    basis set group =>   2
Atom  21H    basis set group =>   2
Atom  22H    basis set group =>   2
Atom  23H    basis set group =>   2


           ************************************************************
           *        Program running with 8 parallel MPI-processes     *
           *              working on a common directory               *
           ************************************************************
------------------------------------------------------------------------------
                             ORCA STARTUP CALCULATIONS
------------------------------------------------------------------------------
------------------------------------------------------------------------------
                   ___                                                        
                  /   \      - P O W E R E D   B Y -                         
                 /     \                                                     
                 |  |  |   _    _      __       _____    __    __             
                 |  |  |  | |  | |    /  \     |  _  \  |  |  /  |          
                  \  \/   | |  | |   /    \    | | | |  |  | /  /          
                 / \  \   | |__| |  /  /\  \   | |_| |  |  |/  /          
                |  |  |   |  __  | /  /__\  \  |    /   |      \           
                |  |  |   | |  | | |   __   |  |    \   |  |\   \          
                \     /   | |  | | |  |  |  |  | |\  \  |  | \   \       
                 \___/    |_|  |_| |__|  |__|  |_| \__\ |__|  \__/        
                                                                              
                      - O R C A' S   B I G   F R I E N D -                    
                                      &                                       
                       - I N T E G R A L  F E E D E R -                       
                                                                              
 v1 FN, 2020, v2 2021, v3 2022-2024                                           
------------------------------------------------------------------------------


----------------------
SHARK INTEGRAL PACKAGE
----------------------

Number of atoms                             ...     24
Number of basis functions                   ...    330
Number of shells                            ...    198
Maximum angular momentum                    ...      2
Integral batch strategy                     ... SHARK/LIBINT Hybrid
RI-J (if used) integral strategy            ... SPLIT-RIJ (Revised 2003 algorithm where possible)
Printlevel                                  ...      1
Contraction scheme used                     ... PARTIAL GENERAL contraction
Prescreening option                         ... SCHWARTZ
   Thresh                                   ... 2.500e-11
   Tcut                                     ... 2.500e-12
   Tpresel                                  ... 2.500e-12 
Coulomb Range Separation                    ... NOT USED
Exchange Range Separation                   ... NOT USED
Multipole approximations                    ... NOT USED
Finite Nucleus Model                        ... NOT USED
CABS basis                                  ... NOT available
Auxiliary Coulomb fitting basis             ... NOT available
Auxiliary J/K fitting basis                 ... NOT available
Auxiliary Correlation fitting basis         ... NOT available
Auxiliary 'external' fitting basis          ... NOT available

Checking pre-screening integrals            ... done (  0.0 sec) Dimension = 198
Save PGC pre-screening integrals            ... done (  0.0 sec) Dimension = 198
Calculate PGC overlap integrals             ... done (  0.0 sec) Dimension = 114
Calculating pre-screening integrals (ORCA)  ... done (  0.0 sec) Dimension = 114
Check shell pair data                       ... done (  0.0 sec)
Shell pair information
Shell pair cut-off parameter TPreSel        ...   2.5e-12
Total number of shell pairs                 ...     19701
Shell pairs after pre-screening             ...     12051
Total number of primitive shell pairs       ...     30453
Primitive shell pairs kept                  ...     16400
          la=0 lb=0:   5192 shell pairs
          la=1 lb=0:   4118 shell pairs
          la=1 lb=1:    652 shell pairs
          la=2 lb=0:   1524 shell pairs
          la=2 lb=1:    472 shell pairs
          la=2 lb=2:     93 shell pairs

Calculating one electron integrals          ... done (  0.0 sec)
Calculating Nuclear repulsion               ... done (  0.0 sec) ENN=    768.929680125096 Eh

Diagonalization of the overlap matrix:
Smallest eigenvalue                        ... 1.191e-04
Time for diagonalization                   ...    0.004 sec
Threshold for overlap eigenvalues          ... 1.000e-07
Number of eigenvalues below threshold      ... 0
Time for construction of square roots      ...    0.001 sec
Total time needed                          ...    0.006 sec

-------------------
DFT GRID GENERATION
-------------------

General Integration Accuracy     IntAcc      ... 4.388
Radial Grid Type                 RadialGrid  ... OptM3 with GC (2021)
Angular Grid (max. ang.)         AngularGrid ... 4 (Lebedev-302)
Angular grid pruning method      GridPruning ... 4 (adaptive)
Weight generation scheme         WeightScheme... mBecke (2022)
Basis function cutoff            BFCut       ... 1.0000e-11
Integration weight cutoff        WCut        ... 1.0000e-14
Partially contracted basis set               ... off
Rotationally invariant grid construction     ... off
Angular grids for H and He will be reduced by one unit

Total number of grid points                  ...   115562
Total number of batches                      ...     1818
Average number of points per batch           ...       63
Average number of grid points per atom       ...     4815

---------------------
SHARK GRID GENERATION
---------------------

General Integration Accuracy     IntAcc      ... 4.388
Radial Grid Type                 RadialGrid  ... OptM3 with GC (2021)
Angular Grid (max. ang.)         AngularGrid ... 4 (Lebedev-302)
Angular grid pruning method      GridPruning ... 4 (adaptive)
Weight generation scheme         WeightScheme... mBecke (2022)
Basis function cutoff            BFCut       ... 1.0000e-11
Integration weight cutoff        WCut        ... 1.0000e-14
Partially contracted basis set               ... off
Rotationally invariant grid construction     ... off
Angular grids for H and He will be reduced by one unit
Steep s-basis detected: some atoms will have their radial
                        grid points doubled.

Total number of grid points                  ...   199861
Total number of batches                      ...     3138
Average number of points per batch           ...       63
Average number of grid points per atom       ...     8328
Initializing property integral containers    ... done (  0.0 sec)

SHARK setup successfully completed in   1.7 seconds

Maximum memory used throughout the entire STARTUP-calculation: 47.3 MB


           ************************************************************
           *        Program running with 8 parallel MPI-processes     *
           *              working on a common directory               *
           ************************************************************
-------------------------------------------------------------------------------
                                 ORCA GUESS
                   Start orbitals & Density for SCF / CASSCF
-------------------------------------------------------------------------------

------------
SCF SETTINGS
------------
Hamiltonian:
 Ab initio Hamiltonian  Method          .... Hartree-Fock(GTOs)


General Settings:
 Integral files         IntName         .... orca
 Hartree-Fock type      HFTyp           .... RHF
 Total Charge           Charge          ....    0
 Multiplicity           Mult            ....    1
 Number of Electrons    NEL             ....   94
 Basis Dimension        Dim             ....  246
 Nuclear Repulsion      ENuc            ....    768.9296801251 Eh

Convergence Acceleration:
 AO-DIIS                CNVDIIS         .... on
   Start iteration      DIISMaxIt       ....    12
   Startup error        DIISStart       ....  0.200000
   # of expansion vecs  DIISMaxEq       ....     5
   Bias factor          DIISBfac        ....   1.050
   Max. coefficient     DIISMaxC        ....  10.000
 MO-DIIS                CNVKDIIS        .... off
 Trust-Rad. Augm. Hess. CNVTRAH         .... auto
   Auto Start mean grad. ratio tolernc. ....  1.125000
   Auto Start start iteration           ....    50
   Auto Start num. interpolation iter.  ....    10
   Max. Number of Micro iterations      ....    24
   Max. Number of Macro iterations      .... Maxiter - #DIIS iter
   Number of Davidson start vectors     ....     2
   Converg. threshold    (grad. norm)   ....   1.000e-05
   Grad. Scal. Fac. for Micro threshold ....   0.100
   Minimum threshold for Micro iter.    ....   1.000e-02
   NR start threshold (gradient norm)   ....   1.000e-04
   Initial trust radius                 ....   0.400
   Minimum AH scaling param. (alpha)    ....   1.000
   Maximum AH scaling param. (alpha)    .... 1000.000
   Quad. conv. algorithm                .... NR
   White noise on init. David. guess    .... on
   Maximum white noise                  ....   0.010
   Pseudo random numbers                .... off
   Inactive MOs                         .... canonical
   Orbital update algorithm             .... Taylor
   Preconditioner                       .... Diag
   Full preconditioner red. dimension   ....   250
 SOSCF                  CNVSOSCF        .... on
   Start iteration      SOSCFMaxIt      ....   150
   Startup grad/error   SOSCFStart      ....  0.003300
   Hessian update       SOSCFHessUp     .... L-BFGS
 Level Shifting         CNVShift        .... on
   Level shift para.    LevelShift      ....    0.2500
   Turn off err/grad.   ShiftErr        ....    0.0010
 Zerner damping         CNVZerner       .... off
 Static damping         CNVDamp         .... on
   Fraction old density DampFac         ....    0.7000
   Max. Damping (<1)    DampMax         ....    0.9800
   Min. Damping (>=0)   DampMin         ....    0.0000
   Turn off err/grad.   DampErr         ....    0.1000

SCF Procedure:
 Maximum # iterations   MaxIter         ....   125
 SCF integral mode      SCFMode         .... Direct
   Integral package                     .... SHARK and LIBINT hybrid scheme
 Reset frequency        DirectResetFreq ....    20
 Integral Threshold     Thresh          ....  2.500e-11 Eh
 Primitive CutOff       TCut            ....  2.500e-12 Eh

Convergence Tolerance:
 Convergence Check Mode ConvCheckMode   .... Total+1el-Energy
 Convergence forced     ConvForced      .... 1
 Energy Change          TolE            ....  1.000e-08 Eh
 1-El. energy change                    ....  1.000e-05 Eh
 Orbital Gradient       TolG            ....  1.000e-05
 Orbital Rotation angle TolX            ....  1.000e-05
 DIIS Error             TolErr          ....  5.000e-07

------------------------------
INITIAL GUESS: MODEL POTENTIAL
------------------------------
Loading Hartree-Fock densities                     ... done
Calculating cut-offs                               ... done
Initializing the effective Hamiltonian             ... done
Setting up the integral package (SHARK)            ... done
Starting the Coulomb interaction                   ... done (   0.0 sec)
Making the grid                                    ... done (   0.1 sec)
Mapping shells                                     ... done
Starting the XC term evaluation                    ... done (   0.0 sec)
Transforming the Hamiltonian                       ... done (   0.0 sec)
Diagonalizing the Hamiltonian                      ... done (   0.0 sec)
Back transforming the eigenvectors                 ... done (   0.0 sec)
Now organizing SCF variables                       ... done
                      ------------------
                      INITIAL GUESS DONE (   0.2 sec)
                      ------------------
             **** ENERGY FILE WAS UPDATED (orca.en.tmp) ****
Finished Guess after   0.4 sec
Maximum memory used throughout the entire GUESS-calculation: 18.4 MB


           ************************************************************
           *        Program running with 8 parallel MPI-processes     *
           *              working on a common directory               *
           ************************************************************

-------------------------------------------------------------------------------------------
                                      ORCA LEAN-SCF
                              memory conserving SCF solver
-------------------------------------------------------------------------------------------

----------------------------------------D-I-I-S--------------------------------------------
Iteration    Energy (Eh)           Delta-E    RMSDP     MaxDP     DIISErr   Damp  Time(sec)
-------------------------------------------------------------------------------------------
               ***  Starting incremental Fock matrix formation  ***
    1    -535.5980641455258819     0.00e+00  4.38e-03  1.42e-01  1.56e-01  0.700   1.1
    2    -535.7434470552055927    -1.45e-01  3.44e-03  1.11e-01  1.06e-01  0.700   1.1
                               ***Turning on AO-DIIS***
    3    -535.8373627055954103    -9.39e-02  2.41e-03  8.00e-02  6.69e-02  0.700   1.1
    4    -535.8989756875674857    -6.16e-02  5.74e-03  1.89e-01  4.58e-02  0.000   1.0
    5    -536.0385022094450278    -1.40e-01  2.79e-04  3.71e-03  4.58e-03  0.000   1.1
                              *** Initializing SOSCF ***
---------------------------------------S-O-S-C-F--------------------------------------
Iteration    Energy (Eh)           Delta-E    RMSDP     MaxDP     MaxGrad    Time(sec)
--------------------------------------------------------------------------------------
    6    -536.0389790715961453    -4.77e-04  1.31e-04  2.01e-03  1.94e-03     1.0
               *** Restarting incremental Fock matrix formation ***
    7    -536.0391092070075274    -1.30e-04  6.48e-05  1.39e-03  1.59e-03     1.1
    8    -536.0391583840822705    -4.92e-05  7.60e-05  1.88e-03  8.71e-04     0.9
    9    -536.0391789632370774    -2.06e-05  1.47e-05  2.41e-04  1.49e-04     0.9
   10    -536.0391800366761572    -1.07e-06  2.95e-06  4.82e-05  3.84e-05     0.8
   11    -536.0391800937251219    -5.70e-08  9.71e-07  1.57e-05  6.62e-06     0.7
   12    -536.0391800997907694    -6.07e-09  1.42e-07  2.30e-06  1.60e-06     0.6
                 **** Energy Check signals convergence ****

               *****************************************************
               *                     SUCCESS                       *
               *           SCF CONVERGED AFTER  12 CYCLES          *
               *****************************************************

             **** ENERGY FILE WAS UPDATED (orca.en.tmp) ****

----------------
TOTAL SCF ENERGY
----------------

Total Energy       :       -536.03918009979077 Eh          -14586.36765 eV

Components:
Nuclear Repulsion  :        768.92968012509607 Eh           20923.64033 eV
Electronic Energy  :      -1304.96886022488684 Eh          -35510.00798 eV
One Electron Energy:      -2250.04511001054288 Eh          -61226.84016 eV
Two Electron Energy:        945.07624978565605 Eh           25716.83218 eV

Virial components:
Potential Energy   :      -1071.87258975064651 Eh          -29167.13600 eV
Kinetic Energy     :        535.83340965085586 Eh           14580.76835 eV
Virial Ratio       :          2.00038401944565

---------------
SCF CONVERGENCE
---------------

  Last Energy change         ...    6.0656e-09  Tolerance :   1.0000e-08
  Last MAX-Density change    ...    2.3029e-06  Tolerance :   1.0000e-07
  Last RMS-Density change    ...    1.4180e-07  Tolerance :   5.0000e-09
  Last DIIS Error            ...    1.9383e-03  Tolerance :   5.0000e-07
  Last Orbital Gradient      ...    1.6039e-06  Tolerance :   1.0000e-05
  Last Orbital Rotation      ...    4.7967e-06  Tolerance :   1.0000e-05


----------------
ORBITAL ENERGIES
----------------

  NO   OCC          E(Eh)            E(eV) 
   0   2.0000     -11.246494      -306.0327 
   1   2.0000     -11.246404      -306.0302 
   2   2.0000     -11.245554      -306.0071 
   3   2.0000     -11.245405      -306.0030 
   4   2.0000     -11.241082      -305.8854 
   5   2.0000     -11.241079      -305.8853 
   6   2.0000     -11.240724      -305.8756 
   7   2.0000     -11.240697      -305.8749 
   8   2.0000     -11.240469      -305.8687 
   9   2.0000     -11.240439      -305.8679 
  10   2.0000     -11.239620      -305.8456 
  11   2.0000     -11.239616      -305.8455 
  12   2.0000     -11.239049      -305.8301 
  13   2.0000     -11.239048      -305.8300 
  14   2.0000      -1.190139       -32.3853 
  15   2.0000      -1.149152       -31.2700 
  16   2.0000      -1.087679       -29.5973 
  17   2.0000      -1.066007       -29.0075 
  18   2.0000      -1.024797       -27.8861 
  19   2.0000      -1.007470       -27.4146 
  20   2.0000      -0.964615       -26.2485 
  21   2.0000      -0.877911       -23.8892 
  22   2.0000      -0.843915       -22.9641 
  23   2.0000      -0.817415       -22.2430 
  24   2.0000      -0.810318       -22.0499 
  25   2.0000      -0.743312       -20.2265 
  26   2.0000      -0.709594       -19.3090 
  27   2.0000      -0.687709       -18.7135 
  28   2.0000      -0.647857       -17.6291 
  29   2.0000      -0.640725       -17.4350 
  30   2.0000      -0.625678       -17.0256 
  31   2.0000      -0.617766       -16.8103 
  32   2.0000      -0.591001       -16.0820 
  33   2.0000      -0.578909       -15.7529 
  34   2.0000      -0.572893       -15.5892 
  35   2.0000      -0.546700       -14.8765 
  36   2.0000      -0.546014       -14.8578 
  37   2.0000      -0.536562       -14.6006 
  38   2.0000      -0.494271       -13.4498 
  39   2.0000      -0.493792       -13.4368 
  40   2.0000      -0.483512       -13.1570 
  41   2.0000      -0.470159       -12.7937 
  42   2.0000      -0.414139       -11.2693 
  43   2.0000      -0.404823       -11.0158 
  44   2.0000      -0.346872        -9.4389 
  45   2.0000      -0.309234        -8.4147 
  46   2.0000      -0.259686        -7.0664 
  47   0.0000       0.060287         1.6405 
  48   0.0000       0.112183         3.0526 
  49   0.0000       0.150388         4.0923 
  50   0.0000       0.187027         5.0893 
  51   0.0000       0.189141         5.1468 
  52   0.0000       0.190299         5.1783 
  53   0.0000       0.191093         5.1999 
  54   0.0000       0.220655         6.0043 
  55   0.0000       0.220827         6.0090 
  56   0.0000       0.233385         6.3507 
  57   0.0000       0.245664         6.6849 
*Only the first 10 virtual orbitals were printed.
-------
TIMINGS
-------

Total SCF time: 0 days 0 hours 0 min 11 sec 

Total time                  ....      11.420 sec
Sum of individual times     ....      11.416 sec  (100.0%)

SCF preparation             ....       0.119 sec  (  1.0%)
Fock matrix formation       ....      10.958 sec  ( 96.0%)
  Startup                   ....       0.014 sec  (  0.1% of F)
  Coulomb+Exchange Fock     ....      10.924 sec  ( 99.7% of F)
Diagonalization             ....       0.000 sec  (  0.0%)
Density matrix formation    ....       0.036 sec  (  0.3%)
Total Energy calculation    ....       0.078 sec  (  0.7%)
Population analysis         ....       0.000 sec  (  0.0%)
Orbital Transformation      ....       0.035 sec  (  0.3%)
Orbital Orthonormalization  ....       0.000 sec  (  0.0%)
DIIS solution               ....       0.123 sec  (  1.1%)
SOSCF solution              ....       0.064 sec  (  0.6%)
Finished LeanSCF after  11.4 sec

Maximum memory used throughout the entire LEANSCF-calculation: 17.7 MB


           ************************************************************
           *        Program running with 8 parallel MPI-processes     *
           *              working on a common directory               *
           ************************************************************

------------------------------------------------------------------------------
                                ORCA  MP2 
------------------------------------------------------------------------------

NOTE: Switching SHARK to Segmented Contraction for MP2
      If that is not desired please turn off the PGCFlag in the input (%shark PGCFlag 0 end)
      Number of basis functions in BAS before restore: 330
      Number of basis functions in BAS after restore : 246
Freezing NCore=28 chemical core electrons
MP2 will be done in the AO integral direct mode
The Q1-step will be done using symmetric double matrices
Dimension of the basis                    ...  246
Memory devoted for MP2                    ... 4096 MB   
Memory needed for all in one shot         ...  286 MB
Number of MOs that can be treated together...   70      
MP2 density construction                  ... relaxed
The MP2 gradient is requested => amplitudes will be stored on disk
Total number of MOs              ...   33
Number of MOs treated per batch  ...    5 
Number of batches necessary      ...    1 
OPERATORS   0/  0 PASS   4
OPERATORS   0/  0 PASS   6
OPERATORS   0/  0 PASS   1
OPERATORS   0/  0 PASS   3
OPERATORS   0/  0 PASS   2
OPERATORS   0/  0 PASS   7
OPERATORS   0/  0 PASS   5
OPERATORS   0/  0 PASS   0
-----------------------------------------------
 MP2 CORRELATION ENERGY   :     -1.806156042 Eh
-----------------------------------------------


---------------------
MP2 DENSITY FORMATION
---------------------

Completing the external part of the density      ... done
Storing the unrelaxed density                    ... done

Calculating G(D)                                 ... done
Completing the Lagrangian                        ... done
Solving the Z-vector equations                   ... 
-------------------
SHARK CP-SCF DRIVER
-------------------

Dimension of the orbital basis          ...    246
Dimension of the CPSCF-problem          ...   9353
Number of operators                     ...      1
Max. number of iterations               ...    128
Convergence Tolerance                   ... 1.0e-04
Number of perturbations                 ...      1
Perturbation type                       ... REAL

----------------------------
POPLE LINEAR EQUATION SOLVER
----------------------------

  ITERATION   0:   ||err||_max =   1.0105e-01 (   1.3 sec)
  ITERATION   1:   ||err||_max =   2.9953e-02 (   1.3 sec)
  ITERATION   2:   ||err||_max =   1.3618e-02 (   1.3 sec)
  ITERATION   3:   ||err||_max =   4.3965e-03 (   1.3 sec)
  ITERATION   4:   ||err||_max =   1.2338e-03 (   1.3 sec)
  ITERATION   5:   ||err||_max =   3.3607e-04 (   1.3 sec)
  ITERATION   6:   ||err||_max =   6.3325e-05 (   1.3 sec)
                                                 ... done
Finalizing the relaxed density                   ... done
Transforming P to the AO basis                   ... done
Storing the relaxed density                      ... done

------------------------------------
ENERGY WEIGHTED DENSITY FINALIZATION
------------------------------------

Gathering the parts of the W-matrix              ...                                                      done
Forming the Z-density                            ... done
Transforming Z to the AO basis                   ... done
Calculating G(Z)                                 ... done
Finalizing the W-matrix                          ...                                                      done
Transforming W to the AO basis and storing       ... done

----------------------------------
MP2 DERIVATIVE INTEGRAL GENERATION
----------------------------------

Input SCF Electron Density              ... orca.scfp
Input Correlated Electron Density       ... orca.pmp2re
Input Energy Weighted Density           ... orca.wmp2.tmp
Input Wavefunction Amplitudes           ... orca.mp2tsaa.tmp

Nuclear repulsion gradient              ... done (  0.0 sec)
HCore & Overlap gradient  (SHARK)       ... done (  0.0 sec)
Analytic two-electron gradient terms    ... 
  Batch handling in the gradient evaluation:
  General contraction                   ... not used
  Memory available                      ... 4040.9 MB
  Memory per occupied orbital in Q2     ...   15.2 MB
  Memory per occupied orbital in Q3     ...    0.0 MB
  Total memory requirement per |i>      ...   15.3 MB
  Number of orbitals treated per batch  ...     33
  Number of batches to be done          ...      1
done ( 10.7 sec)

---------------------------------------
MP2 TOTAL ENERGY:     -537.845336142 Eh
---------------------------------------

The final MP2 gradient
  0:   0.01662249   0.01135956  -0.00000027
  1:  -0.01804014  -0.00855728   0.00000026
  2:   0.00976788  -0.00627976  -0.00000042
  3:   0.00976646   0.00627909   0.00000040
  4:  -0.01803899   0.00855692  -0.00000010
  5:   0.01662300  -0.01135965   0.00000034
  6:  -0.00000104  -0.00871342  -0.00000015
  7:  -0.00976785  -0.00628067   0.00000003
  8:  -0.00000035   0.00871382   0.00000032
  9:  -0.00976698   0.00628042  -0.00000031
 10:   0.01803965  -0.00855543   0.00000031
 11:  -0.01662308   0.01135817   0.00000021
 12:  -0.01662274  -0.01135882  -0.00000045
 13:   0.01803923   0.00855585   0.00000016
 14:   0.00674853  -0.00378677  -0.00000005
 15:  -0.00023999  -0.00801043   0.00000006
 16:  -0.00024001   0.00801141  -0.00000019
 17:   0.00674877   0.00378704  -0.00000004
 18:  -0.00000010  -0.00829860   0.00000001
 19:  -0.00000001   0.00829881  -0.00000002
 20:   0.00023970  -0.00801078  -0.00000010
 21:  -0.00674725  -0.00378583  -0.00000004
 22:  -0.00674718   0.00378596   0.00000011
 23:   0.00024001   0.00801040  -0.00000004

-----------------------------------
NORM OF THE MP2 GRADIENT:  0.067389
-----------------------------------

Maximum memory used throughout the entire MP2-calculation: 579.8 MB

-------------------------   --------------------
FINAL SINGLE POINT ENERGY      -537.845336141662
-------------------------   --------------------

------------------------------------------------------------------------------
                         ORCA GEOMETRY RELAXATION STEP
------------------------------------------------------------------------------

Reading the OPT-File                    .... done
Getting information on internals        .... done
Copying old internal coords+grads       .... done
Making the new internal coordinates     .... (2022 redundants) done
Validating the new internal coordinates .... (2022 redundants) done
Calculating the B-matrix                .... done
Calculating the G,G- and P matrices     .... done
Transforming gradient to internals      .... done
Projecting the internal gradient        .... done
Number of atoms                         ....  24
Number of internal coordinates          .... 132
Current Energy                          ....  -537.845336142 Eh
Current gradient norm                   ....     0.067388980 Eh/bohr
Maximum allowed component of the step   ....  0.300
Current trust radius                    ....  0.300
Evaluating the initial hessian          ....  (Almloef) done
Projecting the Hessian                  .... done
Forming the augmented Hessian           .... done
Diagonalizing the augmented Hessian     .... done
Last element of RFO vector              ....  0.992112247
Lowest eigenvalues of augmented Hessian:
 -0.009174671  0.020959726  0.021099784  0.021368667  0.022041313
Length of the computed step             ....  0.126349276
The final length of the internal step   ....  0.126349276
Converting the step to Cartesian space:
 Initial RMS(Int)=    0.0109972929
Transforming coordinates:
 Iter   0:  RMS(Cart)=    0.0321101206 RMS(Int)=    0.9472894763
done
Storing new coordinates                 .... done

                                .--------------------.
          ----------------------|Geometry convergence|-------------------------
          Item                value                   Tolerance       Converged
          ---------------------------------------------------------------------
          RMS gradient        0.0064949059            0.0000300000      NO
          MAX gradient        0.0268123645            0.0001000000      NO
          RMS step            0.0109972929            0.0006000000      NO
          MAX step            0.0377977562            0.0010000000      NO
          ........................................................
          Max(Bonds)      0.0200      Max(Angles)    0.04
          Max(Dihed)        0.00      Max(Improp)    0.00
          ---------------------------------------------------------------------

The optimization has not yet converged - more geometry cycles are needed


    ---------------------------------------------------------------------------
                         Redundant Internal Coordinates
                            (Angstroem and degrees)

        Definition                    Value    dE/dq     Step     New-Value
    ----------------------------------------------------------------------------
     1. B(C   1,C   0)                1.3566 -0.026812  0.0200    1.3766   
     2. B(C   2,C   1)                1.4316 -0.006107  0.0057    1.4373   
     3. B(C   3,C   2)                1.4282 -0.018204  0.0170    1.4452   
     4. B(C   4,C   3)                1.4316 -0.006108  0.0057    1.4373   
     5. B(C   5,C   4)                1.3566 -0.026812  0.0200    1.3766   
     6. B(C   5,C   0)                1.4283 -0.005578  0.0058    1.4341   
     7. B(C   6,C   2)                1.3926 -0.017121  0.0144    1.4070   
     8. B(C   7,C   6)                1.3926 -0.017120  0.0144    1.4070   
     9. B(C   8,C   3)                1.3926 -0.017121  0.0144    1.4070   
    10. B(C   9,C   8)                1.3926 -0.017120  0.0144    1.4070   
    11. B(C   9,C   7)                1.4282 -0.018203  0.0170    1.4452   
    12. B(C  10,C   7)                1.4316 -0.006106  0.0057    1.4373   
    13. B(C  11,C  10)                1.3566 -0.026811  0.0200    1.3766   
    14. B(C  12,C  11)                1.4283 -0.005577  0.0058    1.4341   
    15. B(C  13,C   9)                1.4316 -0.006106  0.0057    1.4373   
    16. B(C  13,C  12)                1.3566 -0.026811  0.0200    1.3766   
    17. B(H  14,C   0)                1.0846 -0.007738  0.0109    1.0955   
    18. B(H  15,C   1)                1.0855 -0.008011  0.0113    1.0968   
    19. B(H  16,C   4)                1.0855 -0.008012  0.0113    1.0968   
    20. B(H  17,C   5)                1.0846 -0.007739  0.0109    1.0955   
    21. B(H  18,C   6)                1.0864 -0.008299  0.0117    1.0981   
    22. B(H  19,C   8)                1.0864 -0.008299  0.0117    1.0981   
    23. B(H  20,C  10)                1.0855 -0.008012  0.0113    1.0968   
    24. B(H  21,C  11)                1.0846 -0.007737  0.0109    1.0955   
    25. B(H  22,C  12)                1.0846 -0.007737  0.0109    1.0955   
    26. B(H  23,C  13)                1.0855 -0.008011  0.0113    1.0968   
    27. A(C   1,C   0,H  14)          120.22 -0.000487    0.02    120.25   
    28. A(C   5,C   0,H  14)          119.34 -0.000475    0.02    119.36   
    29. A(C   1,C   0,C   5)          120.44  0.000962   -0.04    120.39   
    30. A(C   0,C   1,C   2)          120.87 -0.000032    0.00    120.88   
    31. A(C   0,C   1,H  15)          120.66 -0.000198    0.03    120.69   
    32. A(C   2,C   1,H  15)          118.47  0.000230   -0.03    118.43   
    33. A(C   1,C   2,C   6)          122.06  0.000829   -0.04    122.01   
    34. A(C   3,C   2,C   6)          119.25  0.000102    0.00    119.26   
    35. A(C   1,C   2,C   3)          118.69 -0.000931    0.04    118.73   
    36. A(C   4,C   3,C   8)          122.06  0.000829   -0.04    122.01   
    37. A(C   2,C   3,C   8)          119.25  0.000102    0.00    119.26   
    38. A(C   2,C   3,C   4)          118.69 -0.000931    0.04    118.73   
    39. A(C   3,C   4,C   5)          120.87 -0.000032    0.00    120.88   
    40. A(C   3,C   4,H  16)          118.47  0.000230   -0.03    118.43   
    41. A(C   5,C   4,H  16)          120.66 -0.000198    0.03    120.69   
    42. A(C   0,C   5,H  17)          119.34 -0.000476    0.02    119.36   
    43. A(C   0,C   5,C   4)          120.44  0.000963   -0.04    120.39   
    44. A(C   4,C   5,H  17)          120.22 -0.000487    0.02    120.25   
    45. A(C   2,C   6,H  18)          119.25  0.000102    0.00    119.26   
    46. A(C   7,C   6,H  18)          119.25  0.000102    0.00    119.26   
    47. A(C   2,C   6,C   7)          121.49 -0.000204   -0.01    121.48   
    48. A(C   6,C   7,C  10)          122.06  0.000829   -0.04    122.01   
    49. A(C   6,C   7,C   9)          119.25  0.000102    0.00    119.26   
    50. A(C   9,C   7,C  10)          118.69 -0.000931    0.04    118.73   
    51. A(C   3,C   8,C   9)          121.49 -0.000204   -0.01    121.48   
    52. A(C   9,C   8,H  19)          119.25  0.000102    0.00    119.26   
    53. A(C   3,C   8,H  19)          119.25  0.000102    0.00    119.26   
    54. A(C   7,C   9,C   8)          119.25  0.000102    0.00    119.26   
    55. A(C   8,C   9,C  13)          122.05  0.000829   -0.04    122.01   
    56. A(C   7,C   9,C  13)          118.69 -0.000930    0.04    118.73   
    57. A(C  11,C  10,H  20)          120.66 -0.000198    0.03    120.69   
    58. A(C   7,C  10,H  20)          118.47  0.000230   -0.03    118.43   
    59. A(C   7,C  10,C  11)          120.87 -0.000032    0.00    120.88   
    60. A(C  12,C  11,H  21)          119.34 -0.000475    0.02    119.36   
    61. A(C  10,C  11,H  21)          120.22 -0.000488    0.02    120.25   
    62. A(C  10,C  11,C  12)          120.44  0.000963   -0.04    120.39   
    63. A(C  11,C  12,C  13)          120.44  0.000962   -0.04    120.39   
    64. A(C  13,C  12,H  22)          120.22 -0.000487    0.02    120.25   
    65. A(C  11,C  12,H  22)          119.34 -0.000475    0.02    119.36   
    66. A(C   9,C  13,C  12)          120.87 -0.000032    0.00    120.88   
    67. A(C  12,C  13,H  23)          120.66 -0.000198    0.03    120.69   
    68. A(C   9,C  13,H  23)          118.47  0.000230   -0.03    118.43   
    69. D(H  15,C   1,C   0,H  14)     -0.00  0.000000   -0.00     -0.00   
    70. D(H  15,C   1,C   0,C   5)   -180.00  0.000000   -0.00   -180.00   
    71. D(C   2,C   1,C   0,H  14)   -180.00  0.000000   -0.00   -180.00   
    72. D(C   2,C   1,C   0,C   5)      0.00  0.000000   -0.00      0.00   
    73. D(C   3,C   2,C   1,C   0)     -0.00 -0.000000    0.00     -0.00   
    74. D(C   3,C   2,C   1,H  15)    180.00 -0.000000    0.00    180.00   
    75. D(C   6,C   2,C   1,C   0)   -180.00  0.000000   -0.00   -180.00   
    76. D(C   6,C   2,C   1,H  15)      0.00  0.000000   -0.00      0.00   
    77. D(C   8,C   3,C   2,C   6)     -0.00 -0.000000    0.00     -0.00   
    78. D(C   4,C   3,C   2,C   6)    180.00 -0.000000    0.00    180.00   
    79. D(C   4,C   3,C   2,C   1)      0.00  0.000000   -0.00      0.00   
    80. D(C   8,C   3,C   2,C   1)   -180.00 -0.000000   -0.00   -180.00   
    81. D(H  16,C   4,C   3,C   2)    180.00 -0.000000    0.00    180.00   
    82. D(C   5,C   4,C   3,C   2)     -0.00 -0.000000    0.00     -0.00   
    83. D(C   5,C   4,C   3,C   8)    180.00 -0.000000    0.00    180.00   
    84. D(H  16,C   4,C   3,C   8)      0.00 -0.000000    0.00      0.00   
    85. D(H  17,C   5,C   4,H  16)     -0.00  0.000000   -0.00     -0.00   
    86. D(C   0,C   5,C   4,H  16)   -180.00  0.000000   -0.00   -180.00   
    87. D(C   0,C   5,C   4,C   3)      0.00  0.000000   -0.00      0.00   
    88. D(H  17,C   5,C   0,H  14)      0.00  0.000000   -0.00      0.00   
    89. D(H  17,C   5,C   0,C   1)   -180.00  0.000000   -0.00   -180.00   
    90. D(H  17,C   5,C   4,C   3)   -180.00 -0.000000   -0.00   -180.00   
    91. D(C   4,C   5,C   0,H  14)    180.00 -0.000000    0.00    180.00   
    92. D(C   4,C   5,C   0,C   1)     -0.00 -0.000000    0.00     -0.00   
    93. D(H  18,C   6,C   2,C   3)   -180.00  0.000000   -0.00   -180.00   
    94. D(H  18,C   6,C   2,C   1)     -0.00 -0.000000    0.00     -0.00   
    95. D(C   7,C   6,C   2,C   3)      0.00  0.000000   -0.00      0.00   
    96. D(C   7,C   6,C   2,C   1)    180.00 -0.000000    0.00    180.00   
    97. D(C  10,C   7,C   6,C   2)   -180.00  0.000000   -0.00   -180.00   
    98. D(C   9,C   7,C   6,H  18)   -180.00  0.000000   -0.00   -180.00   
    99. D(C   9,C   7,C   6,C   2)      0.00  0.000000   -0.00      0.00   
   100. D(C  10,C   7,C   6,H  18)      0.00  0.000000   -0.00      0.00   
   101. D(H  19,C   8,C   3,C   4)     -0.00 -0.000000    0.00     -0.00   
   102. D(H  19,C   8,C   3,C   2)   -180.00  0.000000   -0.00   -180.00   
   103. D(C   9,C   8,C   3,C   4)    180.00 -0.000000    0.00    180.00   
   104. D(C   9,C   8,C   3,C   2)      0.00  0.000000   -0.00      0.00   
   105. D(C  13,C   9,C   8,H  19)     -0.00 -0.000000    0.00     -0.00   
   106. D(C   7,C   9,C   8,H  19)   -180.00  0.000000   -0.00   -180.00   
   107. D(C   7,C   9,C   8,C   3)      0.00  0.000000   -0.00      0.00   
   108. D(C  13,C   9,C   7,C  10)     -0.00 -0.000000    0.00     -0.00   
   109. D(C  13,C   9,C   7,C   6)    180.00 -0.000000    0.00    180.00   
   110. D(C  13,C   9,C   8,C   3)   -180.00  0.000000   -0.00   -180.00   
   111. D(C   8,C   9,C   7,C  10)    180.00 -0.000000    0.00    180.00   
   112. D(C   8,C   9,C   7,C   6)     -0.00 -0.000000    0.00     -0.00   
   113. D(H  20,C  10,C   7,C   9)   -180.00  0.000000   -0.00   -180.00   
   114. D(H  20,C  10,C   7,C   6)      0.00  0.000000   -0.00      0.00   
   115. D(C  11,C  10,C   7,C   9)      0.00  0.000000   -0.00      0.00   
   116. D(C  11,C  10,C   7,C   6)   -180.00  0.000000   -0.00   -180.00   
   117. D(H  21,C  11,C  10,H  20)      0.00  0.000000   -0.00      0.00   
   118. D(H  21,C  11,C  10,C   7)   -180.00 -0.000000    0.00   -180.00   
   119. D(C  12,C  11,C  10,H  20)   -180.00  0.000000   -0.00   -180.00   
   120. D(C  12,C  11,C  10,C   7)      0.00  0.000000   -0.00      0.00   
   121. D(H  22,C  12,C  11,H  21)      0.00  0.000000   -0.00     -0.00   
   122. D(H  22,C  12,C  11,C  10)    180.00 -0.000000    0.00    180.00   
   123. D(C  13,C  12,C  11,H  21)    180.00 -0.000000    0.00    180.00   
   124. D(C  13,C  12,C  11,C  10)     -0.00 -0.000000    0.00     -0.00   
   125. D(C   9,C  13,C  12,H  22)    180.00 -0.000000    0.00    180.00   
   126. D(C   9,C  13,C  12,C  11)      0.00  0.000000   -0.00      0.00   
   127. D(H  23,C  13,C   9,C   8)      0.00  0.000000   -0.00      0.00   
   128. D(H  23,C  13,C   9,C   7)   -180.00  0.000000   -0.00   -180.00   
   129. D(C  12,C  13,C   9,C   8)   -180.00  0.000000   -0.00   -180.00   
   130. D(H  23,C  13,C  12,C  11)   -180.00  0.000000   -0.00   -180.00   
   131. D(C  12,C  13,C   9,C   7)      0.00  0.000000   -0.00      0.00   
   132. D(H  23,C  13,C  12,H  22)     -0.00 -0.000000    0.00     -0.00   
    ----------------------------------------------------------------------------

Geometry step timings:
Preparation and reading OPT file:      0.001 s (21.760 %)
Internal coordinates            :      0.000 s ( 0.856 %)
B/P matrices and projection     :      0.001 s (24.866 %)
Hessian update/contruction      :      0.000 s ( 9.707 %)
Making the step                 :      0.001 s (22.396 %)
Converting the step to Cartesian:      0.000 s ( 1.491 %)
Storing new data                :      0.000 s ( 1.222 %)
Checking convergence            :      0.000 s ( 0.122 %)
Final printing                  :      0.001 s (17.555 %)
Total time                      :      0.004 s

Time for energy+gradient        :     55.499 s
Time for complete geometry iter :     55.766 s

         *************************************************************
         *                GEOMETRY OPTIMIZATION CYCLE   2            *
         *************************************************************
---------------------------------
CARTESIAN COORDINATES (ANGSTROEM)
---------------------------------
  C     -3.675303    0.717057    0.000000
  C     -2.487861    1.413516   -0.000002
  C     -1.227494    0.722594   -0.000004
  C     -1.227494   -0.722594    0.000001
  C     -2.487860   -1.413516    0.000002
  C     -3.675302   -0.717057    0.000004
  C     -0.000000    1.410244   -0.000004
  C      1.227494    0.722594   -0.000001
  C      0.000000   -1.410243    0.000000
  C      1.227495   -0.722594   -0.000003
  C      2.487861    1.413516    0.000003
  C      3.675303    0.717056    0.000004
  C      3.675303   -0.717058   -0.000001
  C      2.487861   -1.413517   -0.000004
  H     -4.630091    1.254225    0.000001
  H     -2.482126    2.510267   -0.000006
  H     -2.482126   -2.510267    0.000003
  H     -4.630090   -1.254226    0.000005
  H     -0.000000    2.508336   -0.000004
  H      0.000000   -2.508335    0.000001
  H      2.482126    2.510267    0.000005
  H      4.630089    1.254226    0.000008
  H      4.630090   -1.254226   -0.000001
  H      2.482126   -2.510268   -0.000008

----------------------------
CARTESIAN COORDINATES (A.U.)
----------------------------
  NO LB      ZA    FRAG     MASS         X           Y           Z
   0 C     6.0000    0    12.011   -6.945316    1.355041    0.000000
   1 C     6.0000    0    12.011   -4.701377    2.671158   -0.000005
   2 C     6.0000    0    12.011   -2.319627    1.365506   -0.000008
   3 C     6.0000    0    12.011   -2.319627   -1.365505    0.000002
   4 C     6.0000    0    12.011   -4.701375   -2.671158    0.000004
   5 C     6.0000    0    12.011   -6.945314   -1.355041    0.000007
   6 C     6.0000    0    12.011   -0.000001    2.664975   -0.000007
   7 C     6.0000    0    12.011    2.319627    1.365505   -0.000002
   8 C     6.0000    0    12.011    0.000001   -2.664973    0.000000
   9 C     6.0000    0    12.011    2.319628   -1.365504   -0.000005
  10 C     6.0000    0    12.011    4.701376    2.671159    0.000005
  11 C     6.0000    0    12.011    6.945315    1.355040    0.000008
  12 C     6.0000    0    12.011    6.945316   -1.355042   -0.000002
  13 C     6.0000    0    12.011    4.701376   -2.671160   -0.000007
  14 H     1.0000    0     1.008   -8.749603    2.370142    0.000002
  15 H     1.0000    0     1.008   -4.690539    4.743718   -0.000011
  16 H     1.0000    0     1.008   -4.690538   -4.743717    0.000005
  17 H     1.0000    0     1.008   -8.749601   -2.370143    0.000009
  18 H     1.0000    0     1.008   -0.000001    4.740067   -0.000008
  19 H     1.0000    0     1.008    0.000000   -4.740066    0.000002
  20 H     1.0000    0     1.008    4.690538    4.743718    0.000010
  21 H     1.0000    0     1.008    8.749601    2.370144    0.000015
  22 H     1.0000    0     1.008    8.749603   -2.370145   -0.000002
  23 H     1.0000    0     1.008    4.690538   -4.743719   -0.000014

--------------------------------
INTERNAL COORDINATES (ANGSTROEM)
--------------------------------
 C      0   0   0     0.000000000000     0.00000000     0.00000000
 C      1   0   0     1.376616491209     0.00000000     0.00000000
 C      2   1   0     1.437323519047   120.87633648     0.00000000
 C      3   2   1     1.445188481813   118.73115197     0.00000000
 C      4   3   2     1.437322916398   118.73115958     0.00000000
 C      5   4   3     1.376616415566   120.87632943     0.00000000
 C      3   2   1     1.406983571828   122.01103269   180.00014454
 C      7   3   2     1.406983954972   121.48435882   179.99981821
 C      4   3   2     1.406983625130   119.25780001   180.00001204
 C      9   4   3     1.406983867161   121.48440751     0.00000000
 C      8   7   3     1.437323741875   122.01102512   180.00016697
 C     11   8   7     1.376616726514   120.87628866   180.00004161
 C     12  11   8     1.434113674378   120.39257274     0.00000000
 C     13  12  11     1.376616779165   120.39249321     0.00000000
 H      1   2   3     1.095522457672   120.24514828   180.00001186
 H      2   1   3     1.096766160290   120.69211621   179.99985507
 H      5   4   3     1.096766139212   118.43159564   179.99980085
 H      6   5   4     1.095522530781   120.24514412   180.00003063
 H      7   3   2     1.098091539344   119.25781982     0.00000000
 H      9   4   3     1.098091602843   119.25778157   180.00017159
 H     11   8   7     1.096766078360   118.43152198     0.00000000
 H     12  11   8     1.095522566986   120.24502436   180.00005824
 H     13  12  11     1.095522460009   119.36237432   179.99993363
 H     14  13  12     1.096766063908   120.69214105   179.99999291

---------------------------
INTERNAL COORDINATES (A.U.)
---------------------------
 C      0   0   0     0.000000000000     0.00000000     0.00000000
 C      1   0   0     2.601428159825     0.00000000     0.00000000
 C      2   1   0     2.716147816842   120.87633648     0.00000000
 C      3   2   1     2.731010442523   118.73115197     0.00000000
 C      4   3   2     2.716146678001   118.73115958     0.00000000
 C      5   4   3     2.601428016881   120.87632943     0.00000000
 C      3   2   1     2.658813625682   122.01103269   180.00014454
 C      7   3   2     2.658814349718   121.48435882   179.99981821
 C      4   3   2     2.658813726407   119.25780001   180.00001204
 C      9   4   3     2.658814183780   121.48440751     0.00000000
 C      8   7   3     2.716148237927   122.01102512   180.00016697
 C     11   8   7     2.601428604487   120.87628866   180.00004161
 C     12  11   8     2.710082089486   120.39257274     0.00000000
 C     13  12  11     2.601428703982   120.39249321     0.00000000
 H      1   2   3     2.070237418561   120.24514828   180.00001186
 H      2   1   3     2.072587675901   120.69211621   179.99985507
 H      5   4   3     2.072587636069   118.43159564   179.99980085
 H      6   5   4     2.070237556717   120.24514412   180.00003063
 H      7   3   2     2.075092279336   119.25781982     0.00000000
 H      9   4   3     2.075092399332   119.25778157   180.00017159
 H     11   8   7     2.072587521075   118.43152198     0.00000000
 H     12  11   8     2.070237625133   120.24502436   180.00005824
 H     13  12  11     2.070237422976   119.36237432   179.99993363
 H     14  13  12     2.072587493765   120.69214105   179.99999291



           ************************************************************
           *        Program running with 8 parallel MPI-processes     *
           *              working on a common directory               *
           ************************************************************
------------------------------------------------------------------------------
                   ___                                                        
                  /   \      - P O W E R E D   B Y -                         
[...]
  Last DIIS Error            ...    1.7491e-05  Tolerance :   5.0000e-07
  Last Orbital Gradient      ...    5.1993e-06  Tolerance :   1.0000e-05
  Last Orbital Rotation      ...    2.2131e-05  Tolerance :   1.0000e-05


----------------
ORBITAL ENERGIES
----------------

  NO   OCC          E(Eh)            E(eV) 
   0   2.0000     -11.253770      -306.2307 
   1   2.0000     -11.253694      -306.2286 
   2   2.0000     -11.252923      -306.2076 
   3   2.0000     -11.252795      -306.2041 
   4   2.0000     -11.247982      -306.0731 
   5   2.0000     -11.247945      -306.0721 
   6   2.0000     -11.247942      -306.0721 
   7   2.0000     -11.247893      -306.0707 
   8   2.0000     -11.247584      -306.0623 
   9   2.0000     -11.247570      -306.0619 
  10   2.0000     -11.246675      -306.0376 
  11   2.0000     -11.246673      -306.0375 
  12   2.0000     -11.246085      -306.0215 
  13   2.0000     -11.246084      -306.0215 
  14   2.0000      -1.180387       -32.1200 
  15   2.0000      -1.141041       -31.0493 
  16   2.0000      -1.078872       -29.3576 
  17   2.0000      -1.060912       -28.8689 
  18   2.0000      -1.019142       -27.7323 
  19   2.0000      -1.003224       -27.2991 
  20   2.0000      -0.956515       -26.0281 
  21   2.0000      -0.877049       -23.8657 
  22   2.0000      -0.838920       -22.8282 
  23   2.0000      -0.811155       -22.0726 
  24   2.0000      -0.807200       -21.9650 
  25   2.0000      -0.743334       -20.2271 
  26   2.0000      -0.702761       -19.1231 
  27   2.0000      -0.681322       -18.5397 
  28   2.0000      -0.647077       -17.6079 
  29   2.0000      -0.635410       -17.2904 
  30   2.0000      -0.624519       -16.9940 
  31   2.0000      -0.613181       -16.6855 
  32   2.0000      -0.587096       -15.9757 
  33   2.0000      -0.575980       -15.6732 
  34   2.0000      -0.568538       -15.4707 
  35   2.0000      -0.545884       -14.8542 
  36   2.0000      -0.539891       -14.6912 
  37   2.0000      -0.533972       -14.5301 
  38   2.0000      -0.495630       -13.4868 
  39   2.0000      -0.488610       -13.2958 
  40   2.0000      -0.482882       -13.1399 
  41   2.0000      -0.470784       -12.8107 
  42   2.0000      -0.408664       -11.1203 
  43   2.0000      -0.402641       -10.9564 
  44   2.0000      -0.343478        -9.3465 
  45   2.0000      -0.307590        -8.3699 
  46   2.0000      -0.254128        -6.9152 
  47   0.0000       0.052046         1.4162 
  48   0.0000       0.107728         2.9314 
  49   0.0000       0.144985         3.9453 
  50   0.0000       0.185896         5.0585 
  51   0.0000       0.186019         5.0618 
  52   0.0000       0.188989         5.1427 
  53   0.0000       0.189571         5.1585 
  54   0.0000       0.218669         5.9503 
  55   0.0000       0.219686         5.9780 
  56   0.0000       0.224998         6.1225 
  57   0.0000       0.243389         6.6230 
*Only the first 10 virtual orbitals were printed.
-------
TIMINGS
-------

Total SCF time: 0 days 0 hours 0 min 2 sec 

Total time                  ....       2.935 sec
Sum of individual times     ....       2.931 sec  ( 99.9%)

SCF preparation             ....       0.116 sec  (  3.9%)
Fock matrix formation       ....       2.728 sec  ( 92.9%)
  Startup                   ....       0.015 sec  (  0.5% of F)
  Coulomb+Exchange Fock     ....       2.709 sec  ( 99.3% of F)
Diagonalization             ....       0.000 sec  (  0.0%)
Density matrix formation    ....       0.009 sec  (  0.3%)
Total Energy calculation    ....       0.024 sec  (  0.8%)
Population analysis         ....       0.000 sec  (  0.0%)
Orbital Transformation      ....       0.009 sec  (  0.3%)
Orbital Orthonormalization  ....       0.000 sec  (  0.0%)
DIIS solution               ....       0.021 sec  (  0.7%)
SOSCF solution              ....       0.022 sec  (  0.8%)
Finished LeanSCF after   2.9 sec

Maximum memory used throughout the entire LEANSCF-calculation: 18.1 MB


           ************************************************************
           *        Program running with 8 parallel MPI-processes     *
           *              working on a common directory               *
           ************************************************************

------------------------------------------------------------------------------
                                ORCA  MP2 
------------------------------------------------------------------------------

NOTE: Switching SHARK to Segmented Contraction for MP2
      If that is not desired please turn off the PGCFlag in the input (%shark PGCFlag 0 end)
      Number of basis functions in BAS before restore: 330
      Number of basis functions in BAS after restore : 246
Freezing NCore=28 chemical core electrons
MP2 will be done in the AO integral direct mode
The Q1-step will be done using symmetric double matrices
Dimension of the basis                    ...  246
Memory devoted for MP2                    ... 4096 MB   
Memory needed for all in one shot         ...  286 MB
Number of MOs that can be treated together...   70      
MP2 density construction                  ... relaxed
The MP2 gradient is requested => amplitudes will be stored on disk
Total number of MOs              ...   33
Number of MOs treated per batch  ...    5 
Number of batches necessary      ...    1 
OPERATORS   0/  0 PASS   6
OPERATORS   0/  0 PASS   7
OPERATORS   0/  0 PASS   5
OPERATORS   0/  0 PASS   4
OPERATORS   0/  0 PASS   3
OPERATORS   0/  0 PASS   1
OPERATORS   0/  0 PASS   0
OPERATORS   0/  0 PASS   2
-----------------------------------------------
 MP2 CORRELATION ENERGY   :     -1.819181439 Eh
-----------------------------------------------


---------------------
MP2 DENSITY FORMATION
---------------------

Completing the external part of the density      ... done
Storing the unrelaxed density                    ... done

Calculating G(D)                                 ... done
Completing the Lagrangian                        ... done
Solving the Z-vector equations                   ... 
-------------------
SHARK CP-SCF DRIVER
-------------------

Dimension of the orbital basis          ...    246
Dimension of the CPSCF-problem          ...   9353
Number of operators                     ...      1
Max. number of iterations               ...    128
Convergence Tolerance                   ... 1.0e-04
Number of perturbations                 ...      1
Perturbation type                       ... REAL

----------------------------
POPLE LINEAR EQUATION SOLVER
----------------------------

  ITERATION   0:   ||err||_max =   1.0166e-01 (   1.2 sec)
  ITERATION   1:   ||err||_max =   2.9673e-02 (   1.3 sec)
  ITERATION   2:   ||err||_max =   1.4439e-02 (   1.3 sec)
  ITERATION   3:   ||err||_max =   4.8708e-03 (   1.3 sec)
  ITERATION   4:   ||err||_max =   1.4033e-03 (   1.3 sec)
  ITERATION   5:   ||err||_max =   3.8478e-04 (   1.3 sec)
  ITERATION   6:   ||err||_max =   7.1946e-05 (   1.3 sec)
                                                 ... done
Finalizing the relaxed density                   ... done
Transforming P to the AO basis                   ... done
Storing the relaxed density                      ... done

------------------------------------
ENERGY WEIGHTED DENSITY FINALIZATION
------------------------------------

Gathering the parts of the W-matrix              ...                                                      done
Forming the Z-density                            ... done
Transforming Z to the AO basis                   ... done
Calculating G(Z)                                 ... done
Finalizing the W-matrix                          ...                                                      done
Transforming W to the AO basis and storing       ... done

----------------------------------
MP2 DERIVATIVE INTEGRAL GENERATION
----------------------------------

Input SCF Electron Density              ... orca.scfp
Input Correlated Electron Density       ... orca.pmp2re
Input Energy Weighted Density           ... orca.wmp2.tmp
Input Wavefunction Amplitudes           ... orca.mp2tsaa.tmp

Nuclear repulsion gradient              ... done (  0.0 sec)
HCore & Overlap gradient  (SHARK)       ... done (  0.0 sec)
Analytic two-electron gradient terms    ... 
  Batch handling in the gradient evaluation:
  General contraction                   ... not used
  Memory available                      ... 4040.4 MB
  Memory per occupied orbital in Q2     ...   15.2 MB
  Memory per occupied orbital in Q3     ...    0.0 MB
  Total memory requirement per |i>      ...   15.3 MB
  Number of orbitals treated per batch  ...     33
  Number of batches to be done          ...      1
done ( 10.6 sec)

---------------------------------------
MP2 TOTAL ENERGY:     -537.850881724 Eh
---------------------------------------

The final MP2 gradient
  0:   0.00000854  -0.00001479   0.00000000
  1:   0.00000001   0.00000759  -0.00000000
  2:  -0.00000229   0.00000987  -0.00000000
  3:  -0.00000229  -0.00000987   0.00000000
  4:  -0.00000000  -0.00000760  -0.00000000
  5:   0.00000852   0.00001480  -0.00000000
  6:  -0.00000000  -0.00002569  -0.00000000
  7:   0.00000227   0.00000988  -0.00000000
  8:   0.00000001   0.00002568  -0.00000000
  9:   0.00000228  -0.00000988   0.00000001
 10:  -0.00000000   0.00000759   0.00000000
 11:  -0.00000853  -0.00001479   0.00000000
 12:  -0.00000855   0.00001480  -0.00000000
 13:   0.00000000  -0.00000760   0.00000000
 14:  -0.00000114  -0.00000095  -0.00000000
 15:  -0.00000143  -0.00000116   0.00000000
 16:  -0.00000143   0.00000116   0.00000000
 17:  -0.00000116   0.00000095   0.00000000
 18:  -0.00000000  -0.00000039   0.00000000
 19:  -0.00000000   0.00000039   0.00000000
 20:   0.00000144  -0.00000116   0.00000000
 21:   0.00000114  -0.00000095  -0.00000000
 22:   0.00000117   0.00000094  -0.00000000
 23:   0.00000144   0.00000117   0.00000000

-----------------------------------
NORM OF THE MP2 GRADIENT:  0.000056
-----------------------------------

Maximum memory used throughout the entire MP2-calculation: 580.1 MB

-------------------------   --------------------
FINAL SINGLE POINT ENERGY      -537.850881724180
-------------------------   --------------------

                                *** OPTIMIZATION RUN DONE ***



           ************************************************************
           *        Program running with 8 parallel MPI-processes     *
           *              working on a common directory               *
           ************************************************************

------------------------------------------------------------------------------
                              ORCA PROPERTY CALCULATIONS
------------------------------------------------------------------------------

GBWName                                 ... orca.gbw
Number of atoms                         ...     24
Number of basis functions               ...    330
Max core memory                         ...   1024 MB

Electric properties:
Dipole moment                           ... YES
Quadrupole moment                       ...  NO
Static polarizability (Dipole/Dipole)   ...  NO
Static polarizability (Dipole/Quad.)    ...  NO
Static polarizability (Quad./Quad.)     ...  NO
Static polarizability (Velocity)        ...  NO

Atomic electric properties:
Dipole moment                           ...  NO
Quadrupole moment                       ...  NO
Static polarizability                   ...  NO

Choice of electric origin               ... Center of mass
Position of electric origin             ...    -0.000000    -0.000000    -0.000000

General magnetic properties:
Magnetizability                         ...  NO

EPR properties:
g-Tensor (aka g-matrix)                 ...  NO
Zero-Field splitting spin-orbit         ...  NO
Zero-field splitting spin-spin          ...  NO
Hyperfine couplings                     ...  NO (   0 nuclei)
Quadrupole couplings                    ...  NO (   0 nuclei)
Contact density                         ...  NO (   0 nuclei)

NMR properties:
Chemical shifts                         ...  NO (   0 nuclei)
Spin-rotation constants                 ...  NO (   0 nuclei)
Spin-spin couplings                     ...  NO (   0 nuclei,    0 pairs)

Choice of magnetic origin               ... GIAO
Position of magnetic origin             ...     0.000000     0.000000     0.000000

Properties with geometric perturbations:
SCF Hessian                             ...  NO
IR spectrum                             ...  NO
VCD spectrum                            ...  NO
X-ray spectroscopy properties:
SCF XES/XAS/RIXS spectra                ...  NO


-------------
DIPOLE MOMENT
-------------

Method             : SCF
Type of density    : Electron Density
Multiplicity       :   1
Irrep              :   0
Energy             :  -536.0317002850860035 Eh
Relativity type    : 
Basis              : AO
                                X                 Y                 Z
Electronic contribution:     -0.000000039      -0.000000038      -0.000000539
Nuclear contribution   :      0.000000070       0.000000041       0.000000654
                        -----------------------------------------
Total Dipole Moment    :      0.000000031       0.000000004       0.000000115
                        -----------------------------------------
Magnitude (a.u.)       :      0.000000119
Magnitude (Debye)      :      0.000000303



--------------------
Rotational spectrum 
--------------------
 
Rotational constants in cm-1:             0.070601             0.014886             0.012294 
Rotational constants in MHz :          2116.569767           446.264446           368.556744 

Dipole components along the rotational axes: 
x,y,z [a.u.] :    -0.000000     0.000000     0.000000 
x,y,z [Debye]:    -0.000000     0.000000     0.000000 

 

-------------
DIPOLE MOMENT
-------------

Method             : MP2
Type of density    : Electron Density
Multiplicity       :   1
Level              : Unrelaxed density
Irrep              :   0
Energy             :     0.0000000000000000 Eh
Relativity type    : 
Basis              : AO
                                X                 Y                 Z
Electronic contribution:     -0.000000039      -0.000000036      -0.000000537
Nuclear contribution   :      0.000000070       0.000000041       0.000000654
                        -----------------------------------------
Total Dipole Moment    :      0.000000031       0.000000005       0.000000117
                        -----------------------------------------
Magnitude (a.u.)       :      0.000000121
Magnitude (Debye)      :      0.000000308



--------------------
Rotational spectrum 
--------------------
 
Rotational constants in cm-1:             0.070601             0.014886             0.012294 
Rotational constants in MHz :          2116.569767           446.264446           368.556744 

Dipole components along the rotational axes: 
x,y,z [a.u.] :    -0.000000     0.000000     0.000000 
x,y,z [Debye]:    -0.000000     0.000000     0.000000 

 

-------------
DIPOLE MOMENT
-------------

Method             : MP2
Type of density    : Electron Density
Multiplicity       :   1
Level              : Relaxed density
Irrep              :   0
Energy             :     0.0000000000000000 Eh
Relativity type    : 
Basis              : AO
                                X                 Y                 Z
Electronic contribution:     -0.000000043      -0.000000020      -0.000000550
Nuclear contribution   :      0.000000070       0.000000041       0.000000654
                        -----------------------------------------
Total Dipole Moment    :      0.000000027       0.000000021       0.000000104
                        -----------------------------------------
Magnitude (a.u.)       :      0.000000110
Magnitude (Debye)      :      0.000000278



--------------------
Rotational spectrum 
--------------------
 
Rotational constants in cm-1:             0.070601             0.014886             0.012294 
Rotational constants in MHz :          2116.569767           446.264446           368.556744 

Dipole components along the rotational axes: 
x,y,z [a.u.] :    -0.000000     0.000000     0.000000 
x,y,z [Debye]:    -0.000000     0.000000     0.000000 

 

Dipole moment calculation done in   0.0 sec 

Maximum memory used throughout the entire PROP-calculation: 13.8 MB

--------------------------------
SUGGESTED CITATIONS FOR THIS RUN
--------------------------------

Below you find a list of papers that are relevant to this ORCA run
We neither can nor want to force you to cite these papers, but we appreciate if you do
You receive ORCA, which is the product of decades of hard work by many enthusiastic individuals, for free
The only thing we kindly ask in return is that you cite our papers,
We deeply appreciate it, if you show your appreciation for ORCA by not just citing the generic ORCA reference.

Please note that relegating all ORCA citations to the supporting information does *not* help us.
SI sections are not indexed - citations you put there will not count into any citation statistics
But we need these citations in order to attract the funding resources that allow us to do what we are doing

Therefore, if you are a happy ORCA user, please consider citing a few of the papers listed below in the main body of your paper

In addition to the list printed below, the program has created the file orca.bibtex that contains the list in bibtex format
You can import this file easily into all common literature databanks and citation aid programs


List of essential papers. We consider these as the minimum necessary citations

  1. Neese,F.
     Software update: the ORCA program system, version 5.0
     WIRES Comput. Molec. Sci., 2022 12(1)e1606
     doi.org/10.1002/wcms.1606

List of papers to cite with high priority. The work reported in these papers was absolutely
necessary for this run to complete.
Our perspective: the developers of density functionals and basis sets usually get cited in chemistry papers
Good! But without the algorithms to do something with them, the functionals or basis sets would not do anything.
Hence, in our opinion, the algorithm design and method developments papers are equally worthy of getting cited

  1. Neese,F.
     The SHARK Integral Generation and Digestion System
     J. Comp. Chem., 2022  1-16
     doi.org/10.1002/jcc.26942

List of suggested additional citations. These are papers that are important in the 'surrounding' of 
of this run, or papers that preceded the highly important papers. If you like your results we are grateful for a citation.

  1. Neese,F.
     The ORCA program system
     WIRES Comput. Molec. Sci., 2012 2(1)73-78
     doi.org/10.1002/wcms.81
  2. Neese,F.
     Software update: the ORCA program system, version 4.0
     WIRES Comput. Molec. Sci., 2018 8(1)1-6
     doi.org/10.1002/wcms.1327
  3. Neese,F.; Wennmohs,F.; Becker,U.; Riplinger,C.
     The ORCA quantum chemistry program package
     J. Chem. Phys., 2020 152 Art. No. L224108
     doi.org/10.1063/5.0004608

List of optional additional citations

  1. Neese,F.
     Approximate second-order SCF convergence for spin unrestricted wavefunctions
     Chem. Phys. Lett., 2000 325(1-3)93-98
     doi.org/10.1016/s0009-2614(00)00662-x

Timings for individual modules:

Sum of individual times          ...      387.118 sec (=   6.452 min)
Startup calculation              ...       15.691 sec (=   0.262 min)   4.1 %
SCF iterations                   ...       49.231 sec (=   0.821 min)  12.7 %
Property calculations            ...        0.295 sec (=   0.005 min)   0.1 %
MP2 module                       ...      321.855 sec (=   5.364 min)  83.1 %
Geometry relaxation              ...        0.045 sec (=   0.001 min)   0.0 %
                             ****ORCA TERMINATED NORMALLY****
TOTAL RUN TIME: 0 days 0 hours 6 minutes 29 seconds 252 msec
