
                                 *****************
                                 * O   R   C   A *
                                 *****************

                                            #,                                       
                                            ###                                      
                                            ####                                     
                                            #####                                    
                                            ######                                   
                                           ########,                                 
                                     ,,################,,,,,                         
                               ,,#################################,,                 
                          ,,##########################################,,             
                       ,#########################################, ''#####,          
                    ,#############################################,,   '####,        
                  ,##################################################,,,,####,       
                ,###########''''           ''''###############################       
              ,#####''   ,,,,##########,,,,          '''####'''          '####       
            ,##' ,,,,###########################,,,                        '##       
           ' ,,###''''                  '''############,,,                           
         ,,##''                                '''############,,,,        ,,,,,,###''
      ,#''                                            '''#######################'''  
     '                                                          ''''####''''         
             ,#######,   #######,   ,#######,      ##                                
            ,#'     '#,  ##    ##  ,#'     '#,    #''#        ,####,   ,####,        
            ##       ##  ##   ,#'  ##            #'  '#       #'       #'  '#        
            ##       ##  #######   ##           ,######,      #####,   #    #        
            '#,     ,#'  ##    ##  '#,     ,#' ,#      #,     #,   #   #,  ,#        
             '#######'   ##     ##  '#######'  #'      '#     '####' # '####'        



                #########################################################
                #                        -***-                          #
                #          Department of theory and spectroscopy        #
                #                                                       #
                #                      Frank Neese                      #
                #                                                       #
                #     Directorship, Architecture, Infrastructure        #
                #                    SHARK, DRIVERS                     #
                #        Core code/Algorithms in most modules           #
                #                                                       #
                #        Max Planck Institute fuer Kohlenforschung      #
                #                Kaiser Wilhelm Platz 1                 #
                #                 D-45470 Muelheim/Ruhr                 #
                #                      Germany                          #
                #                                                       #
                #                  All rights reserved                  #
                #                        -***-                          #
                #########################################################


                         Program Version 6.0.1  -  RELEASE   -


 With contributions from (in alphabetic order):
[Max-Planck-Institut fuer Kohlenforschung]                               
  Daniel Aravena         : Magnetic Suceptibility                        
  Michael Atanasov       : Ab Initio Ligand Field Theory (pilot matlab implementation)
  Alexander A. Auer      : GIAO ZORA, VPT2 properties, NMR spectrum      
  Ute Becker             : All parallelization in ORCA, NUMFREQ, NUMCALC 
  Giovanni Bistoni       : ED, misc. LED, open-shell LED, HFLD           
  Martin Brehm           : Molecular dynamics                            
  Dmytro Bykov           : pre 5.0 version of the SCF Hessian            
  Marcos Casanova-Páez   : Triplet and SCS-CIS(D). UHF-(DLPNO)-IP/EA/STEOM-CCSD. UHF-CVS-IP/STEOM-CCSD   
  Vijay G. Chilkuri      : MRCI spin determinant printing, contributions to CSF-ICE 
  Pauline Colinet        : FMM embedding                                 
  Dipayan Datta          : RHF DLPNO-CCSD density                        
  Achintya Kumar Dutta   : EOM-CC, STEOM-CC                              
  Nicolas Foglia         : Exact transition moments, OPA infrastructure, MCD improvements    
  Dmitry Ganyushin       : Spin-Orbit,Spin-Spin,Magnetic field MRCI      
  Miquel Garcia-Rates    : C-PCM and meta-GGA Hessian, CCSD/C-PCM, Gaussian charge scheme 
  Tiago L. C. Gouveia    : GS-ROHF, GS-ROCIS                             
  Yang Guo               : DLPNO-NEVPT2, F12-NEVPT2, CIM, IAO-localization        
  Andreas Hansen         : Spin unrestricted coupled pair/coupled cluster methods 
  Ingolf Harden          : AUTO-CI MPn and infrastructure                
  Benjamin Helmich-Paris : MC-RPA, TRAH-(SCF,CASSCF), AVAS, COSX integrals, SCF dyn. polar. 
  Lee Huntington         : MR-EOM, pCC                                   
  Robert Izsak           : Overlap fitted RIJCOSX, COSX-SCS-MP3, EOM     
  Riya Kayal             : Wick's Theorem for AUTO-CI, AUTO-CI UHF-CCSDT 
  Emily Kempfer          : AUTO-CI, RHF CISDT and CCSDT                  
  Christian Kollmar      : KDIIS, OOCD, Brueckner-CCSD(T), CCSD density, CASPT2, CASPT2-K, improved NEVPT2 
  Axel Koslowski         : Symmetry handling                             
  Simone Kossmann        : meta-GGA functionals, TD-DFT gradient, OOMP2, (MP2 Hessian; deprecated post 5.0) 
  Lucas Lang             : DCDCAS                                        
  Marvin Lechner         : AUTO-CI (C++ implementation), FIC-MRCC        
  Spencer Leger          : CASSCF response                               
  Dagmar Lenk            : GEPOL surface, SMD, ORCA-2-JSON               
  Dimitrios Liakos       : Extrapolation schemes; Compound Job, initial MDCI parallelization 
  Dimitrios Manganas     : Further ROCIS development; embedding schemes. LFT, Crystal Embedding 
  Dimitrios Pantazis     : SARC Basis sets                               
  Anastasios Papadopoulos: AUTO-CI, single reference methods and gradients 
  Taras Petrenko         : pre 6.0 DFT Hessian and TD-DFT gradient, (ASA, deprecated), ECA, 1-Electron XAS/XES, NRVS 
  Peter Pinski           : DLPNO-MP2, DLPNO-MP2 Gradient                 
  Christoph Reimann      : Effective Core Potentials                     
  Marius Retegan         : Local ZFS, SOC                                
  Christoph Riplinger    : Optimizer, TS searches, QM/MM, DLPNO-CCSD(T), (RO)-DLPNO pert. Triples 
  Michael Roemelt        : Original ROCIS implementation                 
  Masaaki Saitow         : Open-shell DLPNO-CCSD energy and density      
  Barbara Sandhoefer     : DKH picture change effects                    
  Kantharuban Sivalingam : CASSCF convergence/infrastructure, NEVPT2 and variants, FIC-MRCI 
  Bernardo de Souza      : ESD, SOC TD-DFT                               
  Georgi L. Stoychev     : AutoAux, RI-MP2 NMR, DLPNO-MP2 response, X2C  
  Van Anh Tran           : RI-MP2 g-tensors                              
  Willem Van den Heuvel  : Paramagnetic NMR                              
  Zikuan Wang            : NOTCH, Electric field optimization            
  Frank Wennmohs         : Technical directorship and infrastructure     
  Hang Xu                : AUTO-CI-Response properties                   
                                                                         
[FACCTs GmbH]                                                            
  Markus Bursch, Miquel Garcia-Rates, Christoph Riplinger, Bernardo de Souza, Georgi L. Stoychev 
                                                                 
  APM, Basis sets (HGBS, AHGBS, def-TZVP (Ac-Lr), def2-XVPD (La-Lu)), CI-OPT, improved COSX, DLPNO-Multilevel,           
  DOCKER, DRACO, updates on ESD, GOAT, IRC, LR-CPCM, MBIS, meta-GGA TD-DFT gradient, ML-optimized integration grids, 
  MM, NACMEs, nearIR, NEB, NEB-TS, NL-DFT gradient (VV10), 2- and 3-layer-ONIOM, interface openCOSMO-RS, QMMM,   
  Crystal-QMMM, SF, symmetry and pop. for TD-DFT, r2SCAN hybrids, SOLVATOR                                   
                                                                         
[Other institutions]                                                     
  V. Asgeirsson          : NEB                                           
  Christoph Bannwarth    : sTDA-DFT, sTD-DFT, PBEh-3c, B97-3c, D3        
  Sebastian Ehlert       : rSCAN, r2SCAN, r2SCAN-3c, D4, dhf basis sets  
  Marvin Friede          : D4 for Fr, Ra, Ac-Lr                          
  Lars Goerigk           : TD-DFT with DH, B97 family of functionals     
  Stefan Grimme          : VdW corrections, initial TS optimization, DFT functionals, gCP, sTDA/sTD-DF 
  Waldemar Hujo          : DFT-NL                                        
  H. Jonsson             : NEB                                           
  Holger Kruse           : gCP                                           
  Marcel Mueller         : wB97X-3c, vDZP basis set                      
  Hagen Neugebauer       : wr2SCAN                                       
  Tobias Risthaus        : range-separated hybrid DFT                    
  Lukas Wittmann         : regularized MP2, r2SCAN double-hybrids, wr2SCAN        
                                                                         
We gratefully acknowledge several colleagues who have allowed us to      
interface, adapt or use parts of their codes:                            
  Ed Valeev, F. Pavosevic, A. Kumar             : LibInt (2-el integral package), F12 methods 
  Garnet Chan, S. Sharma, J. Yang, R. Olivares  : DMRG                   
  Ulf Ekstrom                                   : XCFun DFT Library      
  Mihaly Kallay                                 : mrcc  (arbitrary order and MRCC methods)
  Frank Weinhold                                : gennbo (NPA and NBO analysis)           
  Simon Mueller                                 : openCOSMO-RS                            
  Christopher J. Cramer and Donald G. Truhlar   : smd solvation model                     
  S Lehtola, MJT Oliveira, MAL Marques          : LibXC Library                           
  Liviu Ungur et al                             : ANISO software                          


 Your calculation uses the libint2 library for the computation of 2-el integrals
 For citations please refer to: http://libint.valeyev.net

 Your ORCA version has been built with support for libXC version: 6.2.2
 For citations please refer to: https://libxc.gitlab.io

 This ORCA versions uses:
   CBLAS   interface :  Fast vector & matrix operations
   LAPACKE interface :  Fast linear algebra routines
   SCALAPACK package :  Parallel linear algebra routines
   Shared memory     :  Shared parallel matrices


Reading of a custom orbital basis requested
Basis file: /Users/johannes/Documents/Uni/BasisSets/cc-pvtz.bas
Basis read successfully!



***************************************
The coordinates will be read from file: ethene_opt_MP2_cc-pvtz.xyz
***************************************


================================================================================

----- Orbital basis set information -----
Basis read from file: /Users/johannes/Documents/Uni/BasisSets/cc-pvtz.bas

================================================================================
                                        WARNINGS
                       Please study these warnings very carefully!
================================================================================

WARNING: Old DensityContainer found on disk!
         Will remove this file - 
         If you want to keep old densities, please start your calculation with a different basename. 


IMPORTANT NOTE: CASSCF must signal convergence for a subsequent CASPT2/NEVPT2! 
                Set maxiter=1 to run CASPT2/NEVPT2 with arbitrary orbitals.


================================================================================
                                       INPUT FILE
================================================================================
NAME = orca.inp
|  1> ! PAL8 nopop tightscf printmos RHF
|  2> %basis
|  3> GTOName = "/Users/johannes/Documents/Uni/BasisSets/cc-pvtz.bas"
|  4> end
|  5> %CASSCF
|  6> nel 2
|  7> norb 2
|  8> PTmethod sc_NEVPT2
|  9> nroots 3
| 10> end
| 11> * xyzfile 0 1 ethene_opt_MP2_cc-pvtz.xyz
| 12> 
| 13>                          ****END OF INPUT****
================================================================================

                       ****************************
                       * Single Point Calculation *
                       ****************************

---------------------------------
CARTESIAN COORDINATES (ANGSTROEM)
---------------------------------
  C      0.666022    0.000000    0.000000
  C     -0.666022   -0.000000   -0.000000
  H      1.227911    0.922822    0.000000
  H     -1.227912   -0.922822    0.000000
  H     -1.227912    0.922822    0.000000
  H      1.227912   -0.922822    0.000000

----------------------------
CARTESIAN COORDINATES (A.U.)
----------------------------
  NO LB      ZA    FRAG     MASS         X           Y           Z
   0 C     6.0000    0    12.011    1.258599    0.000000    0.000000
   1 C     6.0000    0    12.011   -1.258600   -0.000000   -0.000000
   2 H     1.0000    0     1.008    2.320416    1.743881    0.000000
   3 H     1.0000    0     1.008   -2.320417   -1.743881    0.000000
   4 H     1.0000    0     1.008   -2.320417    1.743881    0.000000
   5 H     1.0000    0     1.008    2.320417   -1.743880    0.000000

--------------------------------
INTERNAL COORDINATES (ANGSTROEM)
--------------------------------
 C      0   0   0     0.000000000000     0.00000000     0.00000000
 C      1   0   0     1.332044248250     0.00000000     0.00000000
 H      1   2   0     1.080425862755   121.33647836     0.00000000
 H      2   1   3     1.080425870412   121.33647823   180.00000000
 H      2   1   3     1.080425904588   121.33648119     0.00000000
 H      1   2   3     1.080425918300   121.33648226   180.00000000

---------------------------
INTERNAL COORDINATES (A.U.)
---------------------------
 C      0   0   0     0.000000000000     0.00000000     0.00000000
 C      1   0   0     2.517198827458     0.00000000     0.00000000
 H      1   2   0     2.041708988613   121.33647836     0.00000000
 H      2   1   3     2.041709003082   121.33647823   180.00000000
 H      2   1   3     2.041709067666   121.33648119     0.00000000
 H      1   2   3     2.041709093578   121.33648226   180.00000000

---------------------
BASIS SET INFORMATION
---------------------
There are 2 groups of distinct atoms

 Group   1 Type C   : 22s7p2d1f contracted to 4s3p2d1f pattern {101011/511/11/1}
 Group   2 Type H   : 7s2p1d contracted to 3s2p1d pattern {511/11/1}

Atom   0C    basis set group =>   1
Atom   1C    basis set group =>   1
Atom   2H    basis set group =>   2
Atom   3H    basis set group =>   2
Atom   4H    basis set group =>   2
Atom   5H    basis set group =>   2

Checking for AutoStart:
The File: orca.gbw exists
Trying to determine its content:
     ... Fine, the file contains calculation information
     ... Fine, the calculation information was read
     ... Fine, the file contains a basis set
     ... Fine, the basis set was read
     ... Fine, the file contains a geometry
     ... Fine, the geometry was read
     ... Fine, the file contains a set of orbitals
     ... Fine, the orbitals can be read
     => possible old guess file was deleted
     => GBW file was renamed to GES file
     => GES file is set as startup file
     => Guess is set to MORead
     ... now leaving AutoStart



           ************************************************************
           *        Program running with 8 parallel MPI-processes     *
           *              working on a common directory               *
           ************************************************************
------------------------------------------------------------------------------
                             ORCA STARTUP CALCULATIONS
------------------------------------------------------------------------------
------------------------------------------------------------------------------
                   ___                                                        
                  /   \      - P O W E R E D   B Y -                         
                 /     \                                                     
                 |  |  |   _    _      __       _____    __    __             
                 |  |  |  | |  | |    /  \     |  _  \  |  |  /  |          
                  \  \/   | |  | |   /    \    | | | |  |  | /  /          
                 / \  \   | |__| |  /  /\  \   | |_| |  |  |/  /          
                |  |  |   |  __  | /  /__\  \  |    /   |      \           
                |  |  |   | |  | | |   __   |  |    \   |  |\   \          
                \     /   | |  | | |  |  |  |  | |\  \  |  | \   \       
                 \___/    |_|  |_| |__|  |__|  |_| \__\ |__|  \__/        
                                                                              
                      - O R C A' S   B I G   F R I E N D -                    
                                      &                                       
                       - I N T E G R A L  F E E D E R -                       
                                                                              
 v1 FN, 2020, v2 2021, v3 2022-2024                                           
------------------------------------------------------------------------------


----------------------
SHARK INTEGRAL PACKAGE
----------------------

Number of atoms                             ...      6
Number of basis functions                   ...    132
Number of shells                            ...     60
Maximum angular momentum                    ...      3
Integral batch strategy                     ... SHARK/LIBINT Hybrid
RI-J (if used) integral strategy            ... SPLIT-RIJ (Revised 2003 algorithm where possible)
Printlevel                                  ...      1
Contraction scheme used                     ... PARTIAL GENERAL contraction
Prescreening option                         ... SCHWARTZ
   Thresh                                   ... 2.500e-11
   Tcut                                     ... 2.500e-12
   Tpresel                                  ... 2.500e-12 
Coulomb Range Separation                    ... NOT USED
Exchange Range Separation                   ... NOT USED
Multipole approximations                    ... NOT USED
Finite Nucleus Model                        ... NOT USED
CABS basis                                  ... NOT available
Auxiliary Coulomb fitting basis             ... NOT available
Auxiliary J/K fitting basis                 ... NOT available
Auxiliary Correlation fitting basis         ... NOT available
Auxiliary 'external' fitting basis          ... NOT available

Checking pre-screening integrals            ... done (  0.0 sec) Dimension = 60
Save PGC pre-screening integrals            ... done (  0.0 sec) Dimension = 60
Calculate PGC overlap integrals             ... done (  0.0 sec) Dimension = 44
Calculating pre-screening integrals (ORCA)  ... done (  0.0 sec) Dimension = 44
Check shell pair data                       ... done (  0.0 sec)
Shell pair information
Shell pair cut-off parameter TPreSel        ...   2.5e-12
Total number of shell pairs                 ...      1830
Shell pairs after pre-screening             ...      1794
Total number of primitive shell pairs       ...      3630
Primitive shell pairs kept                  ...      3429
          la=0 lb=0:    630 shell pairs
          la=1 lb=0:    504 shell pairs
          la=1 lb=1:    105 shell pairs
          la=2 lb=0:    288 shell pairs
          la=2 lb=1:    112 shell pairs
          la=2 lb=2:     36 shell pairs
          la=3 lb=0:     72 shell pairs
          la=3 lb=1:     28 shell pairs
          la=3 lb=2:     16 shell pairs
          la=3 lb=3:      3 shell pairs

Calculating one electron integrals          ... done (  0.0 sec)
Calculating Nuclear repulsion               ... done (  0.0 sec) ENN=     33.433605360965 Eh

Diagonalization of the overlap matrix:
Smallest eigenvalue                        ... 8.030e-04
Time for diagonalization                   ...    0.001 sec
Threshold for overlap eigenvalues          ... 1.000e-07
Number of eigenvalues below threshold      ... 0
Time for construction of square roots      ...    0.000 sec
Total time needed                          ...    0.002 sec

-------------------
DFT GRID GENERATION
-------------------

General Integration Accuracy     IntAcc      ... 4.388
Radial Grid Type                 RadialGrid  ... OptM3 with GC (2021)
Angular Grid (max. ang.)         AngularGrid ... 4 (Lebedev-302)
Angular grid pruning method      GridPruning ... 4 (adaptive)
Weight generation scheme         WeightScheme... mBecke (2022)
Basis function cutoff            BFCut       ... 1.0000e-11
Integration weight cutoff        WCut        ... 1.0000e-14
Partially contracted basis set               ... off
Rotationally invariant grid construction     ... off
Angular grids for H and He will be reduced by one unit

Total number of grid points                  ...    25284
Total number of batches                      ...      398
Average number of points per batch           ...       63
Average number of grid points per atom       ...     4214

---------------------
SHARK GRID GENERATION
---------------------

General Integration Accuracy     IntAcc      ... 4.388
Radial Grid Type                 RadialGrid  ... OptM3 with GC (2021)
Angular Grid (max. ang.)         AngularGrid ... 4 (Lebedev-302)
Angular grid pruning method      GridPruning ... 4 (adaptive)
Weight generation scheme         WeightScheme... mBecke (2022)
Basis function cutoff            BFCut       ... 1.0000e-11
Integration weight cutoff        WCut        ... 1.0000e-14
Partially contracted basis set               ... off
Rotationally invariant grid construction     ... off
Angular grids for H and He will be reduced by one unit
Steep s-basis detected: some atoms will have their radial
                        grid points doubled.

Total number of grid points                  ...    37638
Total number of batches                      ...      592
Average number of points per batch           ...       63
Average number of grid points per atom       ...     6273
Initializing property integral containers    ... done (  0.0 sec)

SHARK setup successfully completed in   0.3 seconds

Maximum memory used throughout the entire STARTUP-calculation: 25.3 MB


           ************************************************************
           *        Program running with 8 parallel MPI-processes     *
           *              working on a common directory               *
           ************************************************************
-------------------------------------------------------------------------------
                                 ORCA GUESS
                   Start orbitals & Density for SCF / CASSCF
-------------------------------------------------------------------------------

------------
SCF SETTINGS
------------
Hamiltonian:
 Ab initio Hamiltonian  Method          .... Hartree-Fock(GTOs)


General Settings:
 Integral files         IntName         .... orca
 Hartree-Fock type      HFTyp           .... CASSCF
 Total Charge           Charge          ....    0
 Multiplicity           Mult            ....    1
 Number of Electrons    NEL             ....   16
 Basis Dimension        Dim             ....  116
 Nuclear Repulsion      ENuc            ....     33.4336053610 Eh

---------------------
INITIAL GUESS: MOREAD
---------------------
Guess MOs are being read from file: orca.ges
Input Geometry matches current geometry (good)
Input basis set matches current basis set (good)
Occupation numbers will be reassigned to an Aufbau configuration
MOs were renormalized
Gram-Schmidt orthogonalization of all MOs with pivot on actives
                      ------------------
                      INITIAL GUESS DONE (   0.0 sec)
                      ------------------
             **** ENERGY FILE WAS UPDATED (orca.en.tmp) ****
Finished Guess after   0.1 sec
Maximum memory used throughout the entire GUESS-calculation: 7.3 MB


           ************************************************************
           *        Program running with 8 parallel MPI-processes     *
           *              working on a common directory               *
           ************************************************************
-------------------------------------------------------------------------------
                              ORCA-CASSCF
-------------------------------------------------------------------------------

Building the CAS space              ... done (3 configurations for Mult=1)
Memory for address arrays  		      ... done
Make address arrays			      ... done
Memory for buffers 			      ... done
Setting up spin-function prototypes	      ... (MAXOPEN=2) 0 2 4 done
Trivial cases - DOMO's			      ... done (  0.0 MB)
Number of open shells			    ...  0
domo->virtual excitations			... done (  0.0 MB)
domo->somo excitations				... done (  0.0 MB)
somo->virtual excitations			... done (  0.0 MB)
somo->somo excitations				... done (  0.0 MB)
Number of open shells			    ...  2
domo->virtual excitations			... done (  0.0 MB)
domo->somo excitations				... done (  0.0 MB)
somo->virtual excitations			... done (  0.0 MB)
somo->somo excitations				... done (  0.0 MB)
Coupling container construction done

 CASSCF (estimated) memory needed     ... 2.5 MB
 NEVPT2 (estimated) memory needed     ... 6.5 MB


SYSTEM-SPECIFIC SETTINGS:
Number of active electrons          ...    2
Number of active orbitals           ...    2
Total number of electrons           ...   16
Total number of orbitals            ...  116

Determined orbital ranges:
   Internal       0 -    6 (   7 orbitals)
   Active         7 -    8 (   2 orbitals)
   External       9 -  115 ( 107 orbitals)
Number of rotation parameters      ...    977

CI-STEP:
CI strategy                         ... General CI
Number of multiplicity blocks       ...    1
BLOCK  0 WEIGHT=   1.0000
  Multiplicity                      ...    1
  #(Configurations)                 ...    3
  #(CSFs)                           ...    3
  #(Roots)                          ...    3
    ROOT=0 WEIGHT=    0.333333
    ROOT=1 WEIGHT=    0.333333
    ROOT=2 WEIGHT=    0.333333

  PrintLevel                        ...    1
  N(GuessMat)                       ...      2048
  MaxDim(CI)                        ...        10
  MaxIter(CI)                       ...        64
  Energy Tolerance CI               ...  2.50e-09
  Residual Tolerance CI             ...  2.50e-09
  Shift(CI)                         ...  1.00e-04

INTEGRAL-TRANSFORMATION-STEP:
  Algorithm                         ... EXACT

ORBITAL-IMPROVEMENT-STEP:
  Algorithm                         ... SuperCI(PT)
  Default Parametrization           ... CAYLEY
  Act-Act rotations                 ... depends on algorithm used

  Note: SuperCI(PT) will ignore FreezeIE, FreezeAct and FreezeGrad. In general Default settings are encouraged.
        In conjunction with ShiftUp, ShiftDn or GradScaling the performance of SuperCI(PT) is less optimal.  

  MaxRot                            ... 2.00e-01 
  Max. no of vectors (DIIS)         ... 15
  DThresh (cut-off) metric          ... 1.00e-06
  Switch step at gradient           ...  3.00e-02 
  Switch step at iteration          ...        50   
  Switch step to                    ... SuperCI(PT)    

SCF-SETTINGS:
  Incremental                       ... on
  RIJCOSX approximation             ... off
  RI-JK approximation               ... off
  AO integral handling              ... DIRECT
  Integral Neglect Thresh           ...  2.50e-11
  Primitive cutoff TCut             ...  2.50e-12
  Energy convergence tolerance      ...  2.50e-08
  Orbital gradient convergence      ...  2.50e-04
  Max. number of iterations         ...        75  

PT2-SETTINGS:
  A PT2 calculation will be performed on top of the CASSCF wave function (PT2 = SC-NEVPT2)   
 CI step strategy                   ... General CI
  D4C handling                      ... PS approximation (factorized) 
  CI truncation for D4C at          ...  1.00e-12
  CI truncation for D3  at          ...  1.00e-14
  Orbitals                          ... canonical for each state 
  Last  frozen  orbital             ... 1
  First deleted orbital             ... 116

FINAL ORBITALS:
  Active   Orbitals                 ... natural 
  Internal Orbitals                 ... canonical 
  External Orbitals                 ... canonical 

------------------
CAS-SCF ITERATIONS
------------------


MACRO-ITERATION   1: 
   --- Inactive Energy E0 = -76.86792303 Eh
CI-ITERATION   0: 
   -78.077763230   0.000000000000 (    0.00)
   -77.722518402   0.000000000000
   -77.499186076   0.000000000000
   CI-PROBLEM SOLVED
   DENSITIES MADE

                 <<<<<<<<<<<<<<<<<<INITIAL CI STATE CHECK>>>>>>>>>>>>>>>>>>

BLOCK  0 MULT= 1 NROOTS= 3 
ROOT   0:  E=     -78.0777632297 Eh
      0.97603 [     0]: 20
      0.02397 [     2]: 02
ROOT   1:  E=     -77.7225184024 Eh  9.667 eV  77967.2 cm**-1
      1.00000 [     1]: 11
ROOT   2:  E=     -77.4991860760 Eh 15.744 eV 126983.0 cm**-1
      0.97603 [     2]: 02
      0.02397 [     0]: 20

                 <<<<<<<<<<<<<<<<<<INITIAL CI STATE CHECK>>>>>>>>>>>>>>>>>>

   E(CAS)=   -77.766489236 Eh DE=    0.000000e+00
   --- Energy gap subspaces: Ext-Act = 0.151   Act-Int = 0.264
   N(occ)=  1.00000 1.00000
   ||g|| =     3.332661e-01 Max(G)=   -1.004328e-01 Rot=18,8
   --- Orbital Update [SuperCI(PT)]
   --- Canonicalize Internal Space
   --- Canonicalize External Space
   --- SX_PT (Skipped TA=0 IT=0): ||X|| =      0.102604583 Max(X)(18,8) =     -0.079387881 
   --- SFit(Active Orbitals)

MACRO-ITERATION   2: 
   --- Inactive Energy E0 = -76.92902967 Eh
CI-ITERATION   0: 
   -78.069538285   0.000000000000 (    0.00)
   -77.725350467   0.000000000000
   -77.533711934   0.000000000000
   CI-PROBLEM SOLVED
   DENSITIES MADE
   E(CAS)=   -77.776200228 Eh DE=   -9.710992e-03
   --- Energy gap subspaces: Ext-Act = 0.132   Act-Int = 0.286
   N(occ)=  1.00000 1.00000
   ||g|| =     1.504736e-01 Max(G)=    4.361550e-02 Rot=20,4
   --- Orbital Update [SuperCI(PT)]
   --- Canonicalize Internal Space
   --- Canonicalize External Space
   --- SX_PT (Skipped TA=0 IT=0): ||X|| =      0.035994225 Max(X)(16,7) =     -0.025054644 
   --- SFit(Active Orbitals)

MACRO-ITERATION   3: 
   --- Inactive Energy E0 = -76.90788647 Eh
CI-ITERATION   0: 
   -78.075017745   0.000000000000 (    0.00)
   -77.727126702   0.000000000000
   -77.531174394   0.000000000000
   CI-PROBLEM SOLVED
   DENSITIES MADE
   E(CAS)=   -77.777772947 Eh DE=   -1.572719e-03
   --- Energy gap subspaces: Ext-Act = 0.142   Act-Int = 0.280
   N(occ)=  1.00000 1.00000
   ||g|| =     2.346848e-02 Max(G)=   -1.343851e-02 Rot=18,8
   --- Orbital Update [SuperCI(PT)]
   --- Canonicalize Internal Space
   --- Canonicalize External Space
   --- SX_PT (Skipped TA=0 IT=0): ||X|| =      0.011149196 Max(X)(18,8) =      0.010426367 
   --- SFit(Active Orbitals)

MACRO-ITERATION   4: 
   --- Inactive Energy E0 = -76.90938322 Eh
CI-ITERATION   0: 
   -78.075030001   0.000000000000 (    0.00)
   -77.726025242   0.000000000000
   -77.532630930   0.000000000000
   CI-PROBLEM SOLVED
   DENSITIES MADE
   E(CAS)=   -77.777895391 Eh DE=   -1.224437e-04
   --- Energy gap subspaces: Ext-Act = 0.141   Act-Int = 0.281
   N(occ)=  1.00000 1.00000
   ||g|| =     3.527301e-03 Max(G)=   -1.050069e-03 Rot=18,8
   --- Orbital Update [SuperCI(PT)]
   --- Canonicalize Internal Space
   --- Canonicalize External Space
   --- SX_PT (Skipped TA=0 IT=0): ||X|| =      0.000957073 Max(X)(18,8) =      0.000818820 
   --- SFit(Active Orbitals)

MACRO-ITERATION   5: 
   --- Inactive Energy E0 = -76.90897468 Eh
CI-ITERATION   0: 
   -78.075081458   0.000000000000 (    0.00)
   -77.725914473   0.000000000000
   -77.532694710   0.000000000000
   CI-PROBLEM SOLVED
   DENSITIES MADE
   E(CAS)=   -77.777896880 Eh DE=   -1.489526e-06
   --- Energy gap subspaces: Ext-Act = 0.141   Act-Int = 0.281
   N(occ)=  1.00000 1.00000
   ||g|| =     5.534648e-04 Max(G)=   -2.175912e-04 Rot=18,8
   --- Orbital Update [SuperCI(PT)]
   --- Canonicalize Internal Space
   --- Canonicalize External Space
   --- SX_PT (Skipped TA=0 IT=0): ||X|| =      0.000231058 Max(X)(18,8) =     -0.000169400 
   --- SFit(Active Orbitals)

MACRO-ITERATION   6: 
   --- Inactive Energy E0 = -76.90887721 Eh
CI-ITERATION   0: 
   -78.075112764   0.000000000000 (    0.00)
   -77.725888171   0.000000000000
   -77.532689926   0.000000000000
   CI-PROBLEM SOLVED
   DENSITIES MADE
   E(CAS)=   -77.777896954 Eh DE=   -7.325559e-08
   --- Energy gap subspaces: Ext-Act = 0.141   Act-Int = 0.281
   N(occ)=  1.00000 1.00000
   ||g|| =     1.107955e-04 Max(G)=   -6.299696e-05 Rot=16,7
                     ---- THE CAS-SCF GRADIENT HAS CONVERGED ----
                            --- FINALIZING ORBITALS ---
                    ---- DOING ONE FINAL ITERATION FOR PRINTING ----
   --- Canonicalize Internal Space
   --- Canonicalize External Space

MACRO-ITERATION   7: 
   --- Inactive Energy E0 = -76.90887721 Eh
   --- All densities will be recomputed
CI-ITERATION   0: 
   -78.075112764   0.000000000000 (    0.00)
   -77.725888171   0.000000000000
   -77.532689925   0.000000000000
   CI-PROBLEM SOLVED
   DENSITIES MADE
   E(CAS)=   -77.777896953 Eh DE=    2.030305e-10
   --- Energy gap subspaces: Ext-Act = 0.141   Act-Int = 0.281
   N(occ)=  1.00000 1.00000
   ||g|| =     1.107952e-04 Max(G)=   -6.291383e-05 Rot=16,7
--------------
CASSCF RESULTS
--------------

Final CASSCF energy       : -77.777896953 Eh   -2116.4442 eV

----------------
ORBITAL ENERGIES
----------------

  NO   OCC          E(Eh)            E(eV) 
   0   2.0000     -11.256276      -306.2988 
   1   2.0000     -11.254803      -306.2587 
   2   2.0000      -1.057676       -28.7808 
   3   2.0000      -0.807710       -21.9789 
   4   2.0000      -0.664663       -18.0864 
   5   2.0000      -0.610012       -16.5993 
   6   2.0000      -0.521105       -14.1800 
   7   1.0000      -0.240289        -6.5386 
   8   1.0000       0.013592         0.3699 
   9   0.0000       0.154506         4.2043 
  10   0.0000       0.184392         5.0175 
  11   0.0000       0.185508         5.0479 
  12   0.0000       0.238033         6.4772 
  13   0.0000       0.366194         9.9646 
  14   0.0000       0.367687        10.0053 
  15   0.0000       0.431275        11.7356 
  16   0.0000       0.440874        11.9968 
  17   0.0000       0.476094        12.9552 
  18   0.0000       0.544987        14.8298 
  19   0.0000       0.570059        15.5121 
  20   0.0000       0.578732        15.7481 
  21   0.0000       0.628748        17.1091 
  22   0.0000       0.632157        17.2019 
  23   0.0000       0.666987        18.1496 
  24   0.0000       0.683101        18.5881 
  25   0.0000       0.774984        21.0884 
  26   0.0000       0.816116        22.2076 
  27   0.0000       0.846002        23.0209 
  28   0.0000       0.854404        23.2495 
  29   0.0000       0.973780        26.4979 
  30   0.0000       1.075057        29.2538 
  31   0.0000       1.088124        29.6094 
  32   0.0000       1.174128        31.9496 
  33   0.0000       1.202888        32.7323 
  34   0.0000       1.206580        32.8327 
  35   0.0000       1.216673        33.1074 
  36   0.0000       1.283744        34.9325 
  37   0.0000       1.306026        35.5388 
  38   0.0000       1.367558        37.2132 
  39   0.0000       1.458048        39.6755 
  40   0.0000       1.467858        39.9424 
  41   0.0000       1.541216        41.9386 
  42   0.0000       1.575207        42.8636 
  43   0.0000       1.587920        43.2095 
  44   0.0000       1.596956        43.4554 
  45   0.0000       1.793166        48.7945 
  46   0.0000       1.822195        49.5844 
  47   0.0000       1.883799        51.2608 
  48   0.0000       2.291773        62.3623 
  49   0.0000       2.340591        63.6907 
  50   0.0000       2.520177        68.5775 
  51   0.0000       2.523904        68.6789 
  52   0.0000       2.596584        70.6566 
  53   0.0000       2.635373        71.7122 
  54   0.0000       2.694234        73.3138 
  55   0.0000       2.707587        73.6772 
  56   0.0000       2.880335        78.3779 
  57   0.0000       2.928092        79.6774 
  58   0.0000       3.054750        83.1240 
  59   0.0000       3.068784        83.5059 
  60   0.0000       3.069372        83.5219 
  61   0.0000       3.070412        83.5502 
  62   0.0000       3.093417        84.1762 
  63   0.0000       3.130802        85.1935 
  64   0.0000       3.136323        85.3437 
  65   0.0000       3.187197        86.7280 
  66   0.0000       3.225515        87.7707 
  67   0.0000       3.337572        90.8199 
  68   0.0000       3.385835        92.1333 
  69   0.0000       3.397819        92.4594 
  70   0.0000       3.403919        92.6254 
  71   0.0000       3.458871        94.1207 
  72   0.0000       3.481648        94.7405 
  73   0.0000       3.493923        95.0745 
  74   0.0000       3.574234        97.2598 
  75   0.0000       3.604207        98.0754 
  76   0.0000       3.715841       101.1132 
  77   0.0000       3.780879       102.8830 
  78   0.0000       3.903879       106.2299 
  79   0.0000       3.913484       106.4913 
  80   0.0000       3.941743       107.2603 
  81   0.0000       4.004710       108.9737 
  82   0.0000       4.011872       109.1686 
  83   0.0000       4.024258       109.5056 
  84   0.0000       4.116996       112.0292 
  85   0.0000       4.183135       113.8289 
  86   0.0000       4.205228       114.4301 
  87   0.0000       4.217157       114.7547 
  88   0.0000       4.263441       116.0141 
  89   0.0000       4.319193       117.5312 
  90   0.0000       4.351495       118.4102 
  91   0.0000       4.398536       119.6903 
  92   0.0000       4.439686       120.8100 
  93   0.0000       4.545453       123.6881 
  94   0.0000       4.643235       126.3488 
  95   0.0000       4.828155       131.3808 
  96   0.0000       4.831066       131.4600 
  97   0.0000       4.901908       133.3877 
  98   0.0000       4.946024       134.5882 
  99   0.0000       5.000936       136.0824 
 100   0.0000       5.107750       138.9889 
 101   0.0000       5.212386       141.8362 
 102   0.0000       5.217979       141.9884 
 103   0.0000       5.368390       146.0813 
 104   0.0000       5.385217       146.5392 
 105   0.0000       5.425171       147.6264 
 106   0.0000       5.509237       149.9140 
 107   0.0000       5.529264       150.4589 
 108   0.0000       5.636293       153.3713 
 109   0.0000       5.772028       157.0649 
 110   0.0000       6.242793       169.8750 
 111   0.0000       6.332478       172.3155 
 112   0.0000       6.387030       173.7999 
 113   0.0000       6.820265       185.5888 
 114   0.0000      11.824161       321.7518 
 115   0.0000      14.754115       401.4799 


---------------------------------------------
CAS-SCF STATES FOR BLOCK  0 MULT= 1 NROOTS= 3
---------------------------------------------

ROOT   0:  E=     -78.0751127642 Eh
      0.96805 [     0]: 20
      0.03195 [     2]: 02
ROOT   1:  E=     -77.7258881709 Eh  9.503 eV  76645.9 cm**-1
      1.00000 [     1]: 11
ROOT   2:  E=     -77.5326899254 Eh 14.760 eV 119048.1 cm**-1
      0.96805 [     2]: 02
      0.03195 [     0]: 20


--------------
DENSITY MATRIX
--------------

                  0          1    
      0       1.000000  -0.000000
      1      -0.000000   1.000000
Trace of the electron density:  2.000000

-----------------
ENERGY COMPONENTS
-----------------

One electron energy          :   -169.634744775 Eh       -4615.9961 eV
Two electron energy          :     58.423242460 Eh        1589.7773 eV
Nuclear repulsion energy     :     33.433605361 Eh         909.7747 eV
                               ----------------
                                  -77.777896953

Kinetic energy               :     78.163409139 Eh        2126.9345 eV
Potential energy             :   -155.941306092 Eh       -4243.3787 eV
Virial ratio                 :     -1.995067869 
                               ----------------
                                  -77.777896953

Core energy                  :    -76.908877213 Eh    -2092.7969 eV


----------------------------
LOEWDIN REDUCED ACTIVE MOs  
----------------------------

                      6         7         8         9        10        11   
                  -0.52110  -0.24029   0.01359   0.15451   0.18439   0.18551
                   2.00000   1.00000   1.00000   0.00000   0.00000   0.00000
                  --------  --------  --------  --------  --------  --------
 0 C  pz              0.0      43.9      35.7       0.0       0.0       0.0
 0 C  py             21.7       0.0       0.0       0.0       5.6       0.0
 0 C  dxz             0.0       2.2       5.4       0.0       0.0       0.0
 0 C  dxy             7.1       0.0       0.0       0.0       1.7       0.0
 1 C  pz              0.0      43.9      35.7       0.0       0.0       0.0
 1 C  py             21.7       0.0       0.0       0.0       5.6       0.0
 1 C  dxz             0.0       2.2       5.4       0.0       0.0       0.0
 1 C  dxy             7.1       0.0       0.0       0.0       1.7       0.0
 2 H  s              10.1       0.0       0.0      17.1      17.6      17.1
 3 H  s              10.1       0.0       0.0      17.1      17.6      17.1
 4 H  s              10.1       0.0       0.0      17.1      17.6      17.1
 5 H  s              10.1       0.0       0.0      17.1      17.6      17.1

------------------
MOLECULAR ORBITALS
------------------
                      0         1         2         3         4         5   
                 -11.25628 -11.25480  -1.05768  -0.80771  -0.66466  -0.61001
                   2.00000   2.00000   2.00000   2.00000   2.00000   2.00000
                  --------  --------  --------  --------  --------  --------
  0C   1s        -0.706315  0.706884 -0.015123  0.006228 -0.000000 -0.000291
  0C   2s        -0.001100  0.001913  0.627006 -0.506157 -0.000000 -0.023718
  0C   3s        -0.001640  0.001162 -0.013949  0.011577  0.000000  0.002337
  0C   4s        -0.000336  0.001789 -0.128408 -0.033578 -0.000000  0.040218
  0C   1pz       -0.000000  0.000000 -0.000000 -0.000000  0.000000  0.000000
  0C   1px        0.001342 -0.000046 -0.203506 -0.245832 -0.000000  0.639851
  0C   1py        0.000000 -0.000000 -0.000000 -0.000000  0.501555  0.000000
  0C   2pz        0.000000 -0.000000  0.000000 -0.000000 -0.000000 -0.000000
  0C   2px       -0.000583 -0.002105  0.037904  0.020836  0.000000 -0.055227
  0C   2py       -0.000000 -0.000000  0.000000  0.000000 -0.037970 -0.000000
  0C   3pz        0.000000 -0.000000  0.000000  0.000000 -0.000000 -0.000000
  0C   3px       -0.000746 -0.001223  0.066134  0.077611  0.000000 -0.126770
  0C   3py       -0.000000 -0.000000  0.000000  0.000000 -0.096167 -0.000000
  0C   1dz2       0.000427 -0.000692 -0.013507  0.006837  0.000000  0.002728
  0C   1dxz      -0.000000  0.000000  0.000000 -0.000000  0.000000 -0.000000
  0C   1dyz      -0.000000  0.000000  0.000000 -0.000000 -0.000000  0.000000
  0C   1dx2y2    -0.000041  0.000315  0.008820  0.006484 -0.000000 -0.019855
  0C   1dxy      -0.000000  0.000000  0.000000  0.000000  0.002764 -0.000000
  0C   2dz2       0.000005  0.000079 -0.016460  0.015146  0.000000  0.002404
  0C   2dxz      -0.000000  0.000000  0.000000 -0.000000  0.000000 -0.000000
  0C   2dyz      -0.000000 -0.000000  0.000000 -0.000000  0.000000  0.000000
  0C   2dx2y2     0.000524  0.001436  0.004658  0.013889  0.000000 -0.021857
  0C   2dxy      -0.000000  0.000000  0.000000  0.000000  0.000124 -0.000000
  0C   1f0       -0.000000  0.000000  0.000000 -0.000000  0.000000 -0.000000
  0C   1f+1       0.000094  0.000122  0.001936  0.000718  0.000000 -0.004178
  0C   1f-1       0.000000 -0.000000  0.000000  0.000000 -0.002152 -0.000000
  0C   1f+2      -0.000000 -0.000000 -0.000000  0.000000  0.000000  0.000000
  0C   1f-2      -0.000000  0.000000  0.000000 -0.000000  0.000000 -0.000000
  0C   1f+3      -0.000281  0.000873  0.009124 -0.004865  0.000000 -0.004521
  0C   1f-3      -0.000000  0.000000  0.000000 -0.000000 -0.004902 -0.000000
  1C   1s        -0.706315 -0.706884 -0.015123 -0.006228  0.000000 -0.000291
  1C   2s        -0.001100 -0.001913  0.627006  0.506157  0.000000 -0.023718
  1C   3s        -0.001640 -0.001162 -0.013949 -0.011577 -0.000000  0.002337
  1C   4s        -0.000336 -0.001789 -0.128408  0.033578  0.000000  0.040218
  1C   1pz       -0.000000 -0.000000  0.000000  0.000000 -0.000000  0.000000
  1C   1px       -0.001342 -0.000046  0.203506 -0.245832 -0.000000 -0.639851
  1C   1py       -0.000000 -0.000000  0.000000 -0.000000  0.501555 -0.000000
  1C   2pz        0.000000  0.000000  0.000000  0.000000  0.000000 -0.000000
  1C   2px        0.000583 -0.002105 -0.037904  0.020836  0.000000  0.055227
  1C   2py        0.000000 -0.000000 -0.000000  0.000000 -0.037970  0.000000
  1C   3pz        0.000000  0.000000 -0.000000 -0.000000  0.000000  0.000000
  1C   3px        0.000746 -0.001223 -0.066134  0.077611  0.000000  0.126770
  1C   3py        0.000000 -0.000000 -0.000000  0.000000 -0.096167  0.000000
  1C   1dz2       0.000427  0.000692 -0.013507 -0.006837 -0.000000  0.002728
  1C   1dxz       0.000000 -0.000000  0.000000 -0.000000  0.000000 -0.000000
  1C   1dyz       0.000000  0.000000 -0.000000 -0.000000  0.000000 -0.000000
  1C   1dx2y2    -0.000041 -0.000315  0.008820 -0.006484  0.000000 -0.019855
  1C   1dxy      -0.000000 -0.000000  0.000000 -0.000000 -0.002764 -0.000000
  1C   2dz2       0.000005 -0.000079 -0.016460 -0.015146 -0.000000  0.002404
  1C   2dxz      -0.000000 -0.000000  0.000000 -0.000000  0.000000 -0.000000
  1C   2dyz       0.000000 -0.000000 -0.000000 -0.000000  0.000000 -0.000000
  1C   2dx2y2     0.000524 -0.001436  0.004658 -0.013889 -0.000000 -0.021857
  1C   2dxy      -0.000000 -0.000000  0.000000 -0.000000 -0.000124 -0.000000
  1C   1f0        0.000000  0.000000 -0.000000 -0.000000 -0.000000  0.000000
  1C   1f+1      -0.000094  0.000122 -0.001936  0.000718  0.000000  0.004178
  1C   1f-1      -0.000000 -0.000000 -0.000000  0.000000 -0.002152  0.000000
  1C   1f+2       0.000000 -0.000000  0.000000 -0.000000 -0.000000 -0.000000
  1C   1f-2      -0.000000 -0.000000  0.000000  0.000000  0.000000 -0.000000
  1C   1f+3       0.000281  0.000873 -0.009124 -0.004865  0.000000  0.004521
  1C   1f-3       0.000000  0.000000 -0.000000 -0.000000 -0.004902  0.000000
  2H   1s        -0.000288  0.000082  0.198855 -0.367028  0.387011  0.323442
  2H   2s         0.000202  0.001041 -0.064173  0.088094 -0.053575 -0.046891
  2H   3s         0.000629 -0.000168 -0.074889  0.119967 -0.110749 -0.081769
  2H   1pz       -0.000000 -0.000000  0.000000 -0.000000  0.000000  0.000000
  2H   1px       -0.000113  0.000134 -0.002892  0.003367 -0.007045 -0.001110
  2H   1py       -0.000173  0.000229 -0.003036  0.007810 -0.006237 -0.008052
  2H   2pz       -0.000000  0.000000  0.000000 -0.000000  0.000000  0.000000
  2H   2px       -0.000179 -0.000456  0.000641 -0.001723 -0.010441  0.001950
  2H   2py        0.000094 -0.000215  0.004903  0.004197 -0.006735 -0.010702
  2H   1dz2      -0.000033  0.000025  0.000018  0.000639 -0.001597 -0.000789
  2H   1dxz       0.000000  0.000000  0.000000  0.000000 -0.000000 -0.000000
  2H   1dyz       0.000000  0.000000 -0.000000  0.000000  0.000000 -0.000000
  2H   1dx2y2    -0.000025  0.000124  0.000824  0.001359  0.000807 -0.002503
  2H   1dxy       0.000144 -0.000147 -0.000233 -0.000888  0.003087  0.001034
  3H   1s        -0.000288 -0.000082  0.198855  0.367028 -0.387011  0.323442
  3H   2s         0.000202 -0.001041 -0.064173 -0.088094  0.053575 -0.046891
  3H   3s         0.000629  0.000168 -0.074889 -0.119967  0.110749 -0.081769
  3H   1pz       -0.000000 -0.000000 -0.000000 -0.000000  0.000000 -0.000000
  3H   1px        0.000113  0.000134  0.002892  0.003367 -0.007045  0.001110
  3H   1py        0.000173  0.000229  0.003036  0.007810 -0.006237  0.008052
  3H   2pz        0.000000  0.000000  0.000000  0.000000  0.000000  0.000000
  3H   2px        0.000179 -0.000456 -0.000641 -0.001723 -0.010441 -0.001950
  3H   2py       -0.000094 -0.000215 -0.004903  0.004197 -0.006735  0.010702
  3H   1dz2      -0.000033 -0.000025  0.000018 -0.000639  0.001597 -0.000789
  3H   1dxz      -0.000000 -0.000000  0.000000  0.000000  0.000000 -0.000000
  3H   1dyz      -0.000000 -0.000000  0.000000 -0.000000  0.000000 -0.000000
  3H   1dx2y2    -0.000025 -0.000124  0.000824 -0.001359 -0.000807 -0.002503
  3H   1dxy       0.000144  0.000147 -0.000233  0.000888 -0.003087  0.001034
  4H   1s        -0.000288 -0.000082  0.198855  0.367028  0.387011  0.323442
  4H   2s         0.000202 -0.001041 -0.064173 -0.088094 -0.053575 -0.046891
  4H   3s         0.000629  0.000168 -0.074889 -0.119967 -0.110749 -0.081769
  4H   1pz       -0.000000 -0.000000 -0.000000 -0.000000 -0.000000 -0.000000
  4H   1px        0.000113  0.000134  0.002892  0.003367  0.007045  0.001110
  4H   1py       -0.000173 -0.000229 -0.003036 -0.007810 -0.006237 -0.008052
  4H   2pz        0.000000  0.000000  0.000000  0.000000 -0.000000  0.000000
  4H   2px        0.000179 -0.000456 -0.000641 -0.001723  0.010441 -0.001950
  4H   2py        0.000094  0.000215  0.004903 -0.004197 -0.006735 -0.010702
  4H   1dz2      -0.000033 -0.000025  0.000018 -0.000639 -0.001597 -0.000789
  4H   1dxz      -0.000000 -0.000000  0.000000  0.000000 -0.000000 -0.000000
  4H   1dyz       0.000000  0.000000 -0.000000  0.000000  0.000000  0.000000
  4H   1dx2y2    -0.000025 -0.000124  0.000824 -0.001359  0.000807 -0.002503
  4H   1dxy      -0.000144 -0.000147  0.000233 -0.000888 -0.003087 -0.001034
  5H   1s        -0.000288  0.000082  0.198855 -0.367028 -0.387011  0.323442
  5H   2s         0.000202  0.001041 -0.064173  0.088094  0.053575 -0.046891
  5H   3s         0.000629 -0.000168 -0.074889  0.119967  0.110749 -0.081769
  5H   1pz       -0.000000 -0.000000  0.000000 -0.000000 -0.000000  0.000000
  5H   1px       -0.000113  0.000134 -0.002892  0.003367  0.007045 -0.001110
  5H   1py        0.000173 -0.000229  0.003036 -0.007810 -0.006237  0.008052
  5H   2pz       -0.000000  0.000000  0.000000 -0.000000 -0.000000  0.000000
  5H   2px       -0.000179 -0.000456  0.000641 -0.001723  0.010441  0.001950
  5H   2py       -0.000094  0.000215 -0.004903 -0.004197 -0.006735  0.010702
  5H   1dz2      -0.000033  0.000025  0.000018  0.000639  0.001597 -0.000789
  5H   1dxz       0.000000  0.000000  0.000000  0.000000  0.000000 -0.000000
  5H   1dyz      -0.000000 -0.000000  0.000000 -0.000000  0.000000  0.000000
  5H   1dx2y2    -0.000025  0.000124  0.000824  0.001359 -0.000807 -0.002503
  5H   1dxy      -0.000144  0.000147  0.000233  0.000888  0.003087 -0.001034
                      6         7         8         9        10        11   
                  -0.52110  -0.24029   0.01359   0.15451   0.18439   0.18551
                   2.00000   1.00000   1.00000   0.00000   0.00000   0.00000
                  --------  --------  --------  --------  --------  --------
  0C   1s         0.000000 -0.000000 -0.000000 -0.012411 -0.000000  0.019232
  0C   2s         0.000000 -0.000000 -0.000000 -0.264072 -0.000001  0.335936
  0C   3s        -0.000000  0.000000  0.000000  0.005837  0.000000 -0.019162
  0C   4s         0.000000  0.000000  0.000000 -1.887643 -0.000007  3.208797
  0C   1pz       -0.000000 -0.549863 -0.574325  0.000000  0.000000  0.000000
  0C   1px        0.000000  0.000000 -0.000000 -0.172178 -0.000000  0.099657
  0C   1py       -0.477337  0.000000  0.000000 -0.000000  0.294248  0.000001
  0C   2pz        0.000000  0.011213  0.006691 -0.000000  0.000000 -0.000000
  0C   2px       -0.000000 -0.000000  0.000000 -0.113324 -0.000000  0.043830
  0C   2py        0.020480 -0.000000  0.000000 -0.000000  0.084173  0.000000
  0C   3pz        0.000000 -0.042391 -0.511970  0.000000  0.000000  0.000000
  0C   3px       -0.000000 -0.000000 -0.000000 -0.594602  0.000000 -0.074442
  0C   3py        0.025409 -0.000000  0.000000 -0.000000  0.848590  0.000002
  0C   1dz2       0.000000  0.000000 -0.000000  0.000957 -0.000000  0.004349
  0C   1dxz       0.000000  0.015000 -0.013103  0.000000  0.000000  0.000000
  0C   1dyz      -0.000000  0.000000 -0.000000 -0.000000 -0.000000 -0.000000
  0C   1dx2y2     0.000000 -0.000000 -0.000000 -0.000682  0.000000 -0.004229
  0C   1dxy      -0.019495  0.000000 -0.000000 -0.000000 -0.010824 -0.000000
  0C   2dz2       0.000000  0.000000 -0.000000  0.087405  0.000000 -0.159270
  0C   2dxz       0.000000  0.040914  0.008928  0.000000 -0.000000  0.000000
  0C   2dyz      -0.000000  0.000000  0.000000 -0.000000 -0.000000  0.000000
  0C   2dx2y2     0.000000  0.000000 -0.000000  0.036957  0.000000 -0.061929
  0C   2dxy      -0.029654  0.000000 -0.000000  0.000000  0.047687  0.000000
  0C   1f0        0.000000  0.006007  0.001667 -0.000000 -0.000000  0.000000
  0C   1f+1      -0.000000 -0.000000 -0.000000  0.006342 -0.000000  0.000773
  0C   1f-1       0.001998 -0.000000 -0.000000  0.000000 -0.004958 -0.000000
  0C   1f+2      -0.000000 -0.005469  0.000001  0.000000  0.000000  0.000000
  0C   1f-2       0.000000 -0.000000  0.000000 -0.000000  0.000000  0.000000
  0C   1f+3       0.000000 -0.000000  0.000000 -0.014358 -0.000000  0.009231
  0C   1f-3      -0.002507  0.000000 -0.000000 -0.000000 -0.000333  0.000000
  1C   1s         0.000000  0.000000  0.000000 -0.012411  0.000000 -0.019232
  1C   2s         0.000000  0.000000 -0.000000 -0.264072  0.000001 -0.335936
  1C   3s        -0.000000 -0.000000 -0.000000  0.005837 -0.000000  0.019162
  1C   4s         0.000000 -0.000000 -0.000000 -1.887643  0.000008 -3.208797
  1C   1pz       -0.000000 -0.549863  0.574325 -0.000000 -0.000000 -0.000000
  1C   1px       -0.000000 -0.000000  0.000000  0.172178 -0.000000  0.099657
  1C   1py        0.477337 -0.000000  0.000000  0.000000  0.294248  0.000001
  1C   2pz        0.000000  0.011213 -0.006691 -0.000000 -0.000000 -0.000000
  1C   2px        0.000000 -0.000000  0.000000  0.113324 -0.000000  0.043830
  1C   2py       -0.020480  0.000000  0.000000  0.000000  0.084173  0.000000
  1C   3pz        0.000000 -0.042391  0.511970 -0.000000 -0.000000 -0.000000
  1C   3px        0.000000 -0.000000 -0.000000  0.594602  0.000000 -0.074442
  1C   3py       -0.025409  0.000000  0.000000  0.000000  0.848591  0.000002
  1C   1dz2       0.000000 -0.000000 -0.000000  0.000957  0.000000 -0.004349
  1C   1dxz      -0.000000 -0.015000 -0.013103  0.000000  0.000000  0.000000
  1C   1dyz       0.000000 -0.000000 -0.000000  0.000000 -0.000000 -0.000000
  1C   1dx2y2     0.000000  0.000000  0.000000 -0.000682 -0.000000  0.004229
  1C   1dxy      -0.019495  0.000000  0.000000 -0.000000  0.010824  0.000000
  1C   2dz2       0.000000 -0.000000  0.000000  0.087405 -0.000000  0.159270
  1C   2dxz      -0.000000 -0.040914  0.008928  0.000000 -0.000000  0.000000
  1C   2dyz       0.000000 -0.000000  0.000000  0.000000  0.000000  0.000000
  1C   2dx2y2     0.000000 -0.000000  0.000000  0.036957 -0.000000  0.061929
  1C   2dxy      -0.029654  0.000000  0.000000  0.000000 -0.047687 -0.000000
  1C   1f0        0.000000  0.006007 -0.001667  0.000000  0.000000  0.000000
  1C   1f+1       0.000000 -0.000000 -0.000000 -0.006342 -0.000000  0.000773
  1C   1f-1      -0.001998  0.000000 -0.000000 -0.000000 -0.004958 -0.000000
  1C   1f+2      -0.000000 -0.005469 -0.000001  0.000000 -0.000000  0.000000
  1C   1f-2      -0.000000 -0.000000  0.000000 -0.000000  0.000000 -0.000000
  1C   1f+3      -0.000000 -0.000000  0.000000  0.014358 -0.000000  0.009231
  1C   1f-3       0.002507 -0.000000 -0.000000  0.000000 -0.000333  0.000000
  2H   1s        -0.472374  0.000000  0.000000  0.004013 -0.067214 -0.018408
  2H   2s         0.075768 -0.000000 -0.000000  0.176227 -0.034055 -0.240535
  2H   3s         0.111977 -0.000000  0.000000  1.178794 -1.504873 -1.359276
  2H   1pz       -0.000000 -0.005325 -0.008821  0.000000 -0.000000  0.000000
  2H   1px        0.005472 -0.000000  0.000000  0.001390 -0.013045 -0.008060
  2H   1py        0.006863 -0.000000  0.000000  0.013162 -0.009881 -0.013226
  2H   2pz       -0.000000 -0.013416 -0.020718 -0.000000  0.000000 -0.000000
  2H   2px        0.005851 -0.000000  0.000000 -0.063729  0.074423  0.095458
  2H   2py        0.002002 -0.000000  0.000000 -0.130322  0.077267  0.142523
  2H   1dz2       0.000866 -0.000000  0.000000 -0.006322  0.002398  0.005830
  2H   1dxz       0.000000  0.001702  0.001133 -0.000000 -0.000000 -0.000000
  2H   1dyz       0.000000  0.001913  0.003581 -0.000000  0.000000 -0.000000
  2H   1dx2y2     0.000765 -0.000000  0.000000 -0.003437  0.001652  0.000989
  2H   1dxy      -0.001596  0.000000 -0.000000  0.006046 -0.003672 -0.005051
  3H   1s        -0.472374 -0.000000  0.000000  0.004013  0.067214  0.018408
  3H   2s         0.075768 -0.000000  0.000000  0.176227  0.034055  0.240535
  3H   3s         0.111977 -0.000000  0.000000  1.178794  1.504873  1.359276
  3H   1pz        0.000000 -0.005325  0.008821 -0.000000  0.000000  0.000000
  3H   1px       -0.005472 -0.000000  0.000000 -0.001390 -0.013045 -0.008060
  3H   1py       -0.006863 -0.000000 -0.000000 -0.013162 -0.009881 -0.013226
  3H   2pz       -0.000000 -0.013416  0.020718 -0.000000 -0.000000 -0.000000
  3H   2px       -0.005851 -0.000000  0.000000  0.063729  0.074423  0.095458
  3H   2py       -0.002002 -0.000000  0.000000  0.130322  0.077267  0.142523
  3H   1dz2       0.000866  0.000000 -0.000000 -0.006322 -0.002398 -0.005830
  3H   1dxz       0.000000 -0.001702  0.001133 -0.000000  0.000000 -0.000000
  3H   1dyz       0.000000 -0.001913  0.003581 -0.000000 -0.000000 -0.000000
  3H   1dx2y2     0.000765 -0.000000 -0.000000 -0.003437 -0.001652 -0.000989
  3H   1dxy      -0.001596 -0.000000  0.000000  0.006046  0.003672  0.005051
  4H   1s         0.472374 -0.000000  0.000000  0.004013 -0.067214  0.018408
  4H   2s        -0.075768 -0.000000  0.000000  0.176227 -0.034056  0.240535
  4H   3s        -0.111977 -0.000000  0.000000  1.178794 -1.504880  1.359269
  4H   1pz       -0.000000 -0.005325  0.008821 -0.000000 -0.000000  0.000000
  4H   1px        0.005472 -0.000000  0.000000 -0.001390  0.013045 -0.008060
  4H   1py       -0.006863  0.000000  0.000000  0.013162 -0.009881  0.013226
  4H   2pz        0.000000 -0.013416  0.020718 -0.000000  0.000000 -0.000000
  4H   2px        0.005851 -0.000000  0.000000  0.063729 -0.074424  0.095458
  4H   2py       -0.002002  0.000000 -0.000000 -0.130322  0.077268 -0.142523
  4H   1dz2      -0.000866  0.000000 -0.000000 -0.006322  0.002398 -0.005830
  4H   1dxz      -0.000000 -0.001702  0.001133 -0.000000 -0.000000 -0.000000
  4H   1dyz       0.000000  0.001913 -0.003581  0.000000 -0.000000  0.000000
  4H   1dx2y2    -0.000765 -0.000000 -0.000000 -0.003437  0.001652 -0.000989
  4H   1dxy      -0.001596  0.000000 -0.000000 -0.006046  0.003672 -0.005051
  5H   1s         0.472374  0.000000  0.000000  0.004013  0.067214 -0.018408
  5H   2s        -0.075768 -0.000000 -0.000000  0.176227  0.034056 -0.240535
  5H   3s        -0.111977 -0.000000  0.000000  1.178794  1.504879 -1.359269
  5H   1pz        0.000000 -0.005325 -0.008821  0.000000  0.000000  0.000000
  5H   1px       -0.005472 -0.000000  0.000000  0.001390  0.013045 -0.008060
  5H   1py        0.006863  0.000000 -0.000000 -0.013162 -0.009881  0.013226
  5H   2pz        0.000000 -0.013416 -0.020718  0.000000 -0.000000 -0.000000
  5H   2px       -0.005851 -0.000000  0.000000 -0.063729 -0.074424  0.095458
  5H   2py        0.002002  0.000000 -0.000000  0.130322  0.077268 -0.142523
  5H   1dz2      -0.000866 -0.000000  0.000000 -0.006322 -0.002398  0.005830
  5H   1dxz      -0.000000  0.001702  0.001133 -0.000000  0.000000 -0.000000
  5H   1dyz       0.000000 -0.001913 -0.003581  0.000000  0.000000  0.000000
  5H   1dx2y2    -0.000765 -0.000000  0.000000 -0.003437 -0.001652  0.000989
  5H   1dxy      -0.001596 -0.000000  0.000000 -0.006046 -0.003672  0.005051
                     12        13        14        15        16        17   
                   0.23803   0.36619   0.36769   0.43128   0.44087   0.47609
                   0.00000   0.00000   0.00000   0.00000   0.00000   0.00000
                  --------  --------  --------  --------  --------  --------
  0C   1s         0.000000  0.012841  0.057715 -0.000000  0.000000 -0.025328
  0C   2s         0.000000  0.117871  0.259116  0.000000  0.000000 -0.188659
  0C   3s         0.000000 -0.025151  0.018883 -0.000000  0.000000 -0.032908
  0C   4s         0.000000  6.084648  0.566825 -0.000000 -0.000000  2.195744
  0C   1pz        0.000000  0.000000 -0.000000 -0.000000 -0.392433  0.000000
  0C   1px       -0.000000 -0.080929 -0.194269 -0.000000  0.000000  0.167581
  0C   1py        0.251345 -0.000000 -0.000000  0.032541  0.000000 -0.000000
  0C   2pz        0.000000  0.000000 -0.000000 -0.000000 -0.352565  0.000000
  0C   2px       -0.000000 -0.605136 -0.286056  0.000000 -0.000000  0.492782
  0C   2py        0.181435 -0.000000 -0.000000 -0.406818  0.000000  0.000000
  0C   3pz        0.000000 -0.000000 -0.000000 -0.000000  0.856866 -0.000000
  0C   3px       -0.000000 -5.008190  1.423458  0.000000 -0.000000  0.041298
  0C   3py        2.623643 -0.000001  0.000000 -1.163528 -0.000000  0.000000
  0C   1dz2       0.000000  0.002976 -0.006794  0.000000 -0.000000 -0.004928
  0C   1dxz      -0.000000 -0.000000  0.000000 -0.000000  0.005914 -0.000000
  0C   1dyz       0.000000  0.000000 -0.000000 -0.000000 -0.000000  0.000000
  0C   1dx2y2    -0.000000 -0.010999  0.048369 -0.000000 -0.000000 -0.031471
  0C   1dxy       0.019795 -0.000000  0.000000  0.026816 -0.000000  0.000000
  0C   2dz2      -0.000000 -0.136039  0.094568  0.000000  0.000000 -0.061350
  0C   2dxz       0.000000  0.000000 -0.000000 -0.000000  0.107388 -0.000000
  0C   2dyz      -0.000000  0.000000  0.000000  0.000000  0.000000  0.000000
  0C   2dx2y2    -0.000000  0.363839 -0.165631  0.000000  0.000000 -0.076776
  0C   2dxy       0.042384  0.000000 -0.000000 -0.264954  0.000000 -0.000000
  0C   1f0       -0.000000  0.000000 -0.000000  0.000000 -0.006844  0.000000
  0C   1f+1       0.000000  0.027755 -0.018772 -0.000000  0.000000 -0.015565
  0C   1f-1      -0.015056  0.000000 -0.000000  0.030379 -0.000000 -0.000000
  0C   1f+2      -0.000000 -0.000000  0.000000  0.000000  0.000235 -0.000000
  0C   1f-2      -0.000000 -0.000000  0.000000  0.000000  0.000000  0.000000
  0C   1f+3      -0.000000  0.015333 -0.013252 -0.000000 -0.000000  0.064090
  0C   1f-3       0.003718  0.000000 -0.000000  0.012636 -0.000000  0.000000
  1C   1s         0.000000 -0.012841  0.057715  0.000000  0.000000 -0.025328
  1C   2s         0.000000 -0.117871  0.259116 -0.000000  0.000000 -0.188659
  1C   3s         0.000000  0.025151  0.018883  0.000000 -0.000000 -0.032908
  1C   4s         0.000000 -6.084647  0.566835  0.000000  0.000000  2.195745
  1C   1pz        0.000000  0.000000  0.000000  0.000000 -0.392433 -0.000000
  1C   1px        0.000000 -0.080929  0.194269 -0.000000  0.000000 -0.167581
  1C   1py       -0.251345 -0.000000  0.000000  0.032541 -0.000000  0.000000
  1C   2pz        0.000000  0.000000 -0.000000  0.000000 -0.352565  0.000000
  1C   2px        0.000000 -0.605136  0.286057 -0.000000 -0.000000 -0.492782
  1C   2py       -0.181435 -0.000000  0.000000 -0.406818 -0.000000 -0.000000
  1C   3pz        0.000000 -0.000000  0.000000  0.000000  0.856866  0.000000
  1C   3px        0.000000 -5.008192 -1.423450  0.000000 -0.000000 -0.041298
  1C   3py       -2.623643 -0.000001 -0.000000 -1.163528  0.000000 -0.000000
  1C   1dz2       0.000000 -0.002976 -0.006794 -0.000000  0.000000 -0.004928
  1C   1dxz       0.000000  0.000000  0.000000 -0.000000 -0.005914 -0.000000
  1C   1dyz       0.000000  0.000000  0.000000  0.000000  0.000000 -0.000000
  1C   1dx2y2    -0.000000  0.010999  0.048369  0.000000  0.000000 -0.031471
  1C   1dxy       0.019795  0.000000  0.000000 -0.026816 -0.000000  0.000000
  1C   2dz2      -0.000000  0.136039  0.094568 -0.000000 -0.000000 -0.061350
  1C   2dxz      -0.000000 -0.000000 -0.000000 -0.000000 -0.107388 -0.000000
  1C   2dyz      -0.000000  0.000000 -0.000000 -0.000000 -0.000000 -0.000000
  1C   2dx2y2    -0.000000 -0.363839 -0.165631 -0.000000 -0.000000 -0.076776
  1C   2dxy       0.042384 -0.000000 -0.000000  0.264954  0.000000 -0.000000
  1C   1f0       -0.000000  0.000000  0.000000 -0.000000 -0.006844 -0.000000
  1C   1f+1      -0.000000  0.027755  0.018772 -0.000000  0.000000  0.015565
  1C   1f-1       0.015056  0.000000  0.000000  0.030379  0.000000  0.000000
  1C   1f+2      -0.000000 -0.000000 -0.000000 -0.000000  0.000235 -0.000000
  1C   1f-2       0.000000  0.000000  0.000000  0.000000 -0.000000  0.000000
  1C   1f+3       0.000000  0.015333  0.013252 -0.000000 -0.000000 -0.064090
  1C   1f-3      -0.003718  0.000000  0.000000  0.012636  0.000000 -0.000000
  2H   1s         0.101743  0.107598 -0.072349  0.255977  0.000000 -0.103912
  2H   2s        -0.293172  0.232429 -0.263778  0.962035  0.000000 -1.006405
  2H   3s        -2.497440  1.250472 -0.057644  0.214479  0.000000 -0.306799
  2H   1pz        0.000000 -0.000000  0.000000 -0.000000  0.006533 -0.000000
  2H   1px       -0.012622 -0.017107  0.009333 -0.011707 -0.000000  0.004489
  2H   1py       -0.009371  0.006158 -0.000377 -0.019047 -0.000000  0.018515
  2H   2pz        0.000000  0.000000  0.000000 -0.000000 -0.049743 -0.000000
  2H   2px        0.129399 -0.026419  0.021143 -0.010030 -0.000000  0.176018
  2H   2py        0.116830 -0.077356 -0.085478 -0.180423 -0.000000  0.230690
  2H   1dz2       0.005258 -0.003604 -0.007897 -0.004372 -0.000000  0.023661
  2H   1dxz      -0.000000 -0.000000 -0.000000  0.000000 -0.000489 -0.000000
  2H   1dyz      -0.000000 -0.000000 -0.000000  0.000000  0.001579 -0.000000
  2H   1dx2y2     0.000736 -0.002663 -0.011705 -0.012410 -0.000000  0.014943
  2H   1dxy      -0.011463  0.010102  0.000660  0.012672  0.000000 -0.026623
  3H   1s         0.101743 -0.107598 -0.072348 -0.255977 -0.000000 -0.103912
  3H   2s        -0.293172 -0.232430 -0.263778 -0.962035 -0.000000 -1.006405
  3H   3s        -2.497440 -1.250472 -0.057642 -0.214479 -0.000000 -0.306799
  3H   1pz       -0.000000 -0.000000 -0.000000  0.000000  0.006533  0.000000
  3H   1px        0.012622 -0.017107 -0.009333 -0.011707 -0.000000 -0.004489
  3H   1py        0.009371  0.006158  0.000377 -0.019047 -0.000000 -0.018515
  3H   2pz        0.000000  0.000000 -0.000000  0.000000 -0.049743  0.000000
  3H   2px       -0.129399 -0.026419 -0.021143 -0.010030 -0.000000 -0.176018
  3H   2py       -0.116830 -0.077356  0.085478 -0.180423 -0.000000 -0.230690
  3H   1dz2       0.005258  0.003604 -0.007897  0.004372  0.000000  0.023661
  3H   1dxz      -0.000000  0.000000  0.000000 -0.000000  0.000489  0.000000
  3H   1dyz      -0.000000 -0.000000 -0.000000  0.000000 -0.001579  0.000000
  3H   1dx2y2     0.000736  0.002663 -0.011705  0.012410  0.000000  0.014943
  3H   1dxy      -0.011463 -0.010102  0.000660 -0.012672 -0.000000 -0.026623
  4H   1s        -0.101743 -0.107598 -0.072348  0.255977 -0.000000 -0.103912
  4H   2s         0.293171 -0.232430 -0.263778  0.962035 -0.000000 -1.006404
  4H   3s         2.497440 -1.250472 -0.057642  0.214479 -0.000000 -0.306798
  4H   1pz        0.000000 -0.000000 -0.000000 -0.000000  0.006533  0.000000
  4H   1px       -0.012622 -0.017107 -0.009333  0.011707 -0.000000 -0.004489
  4H   1py        0.009371 -0.006158 -0.000377 -0.019047  0.000000  0.018515
  4H   2pz       -0.000000  0.000000 -0.000000 -0.000000 -0.049743  0.000000
  4H   2px        0.129399 -0.026419 -0.021143  0.010030 -0.000000 -0.176018
  4H   2py       -0.116830  0.077356 -0.085478 -0.180423  0.000000  0.230690
  4H   1dz2      -0.005258  0.003604 -0.007897 -0.004372  0.000000  0.023661
  4H   1dxz       0.000000  0.000000  0.000000  0.000000  0.000489  0.000000
  4H   1dyz      -0.000000  0.000000  0.000000  0.000000  0.001579 -0.000000
  4H   1dx2y2    -0.000736  0.002663 -0.011705 -0.012410  0.000000  0.014943
  4H   1dxy      -0.011463  0.010102 -0.000660 -0.012672  0.000000  0.026623
  5H   1s        -0.101743  0.107598 -0.072349 -0.255977  0.000000 -0.103912
  5H   2s         0.293171  0.232429 -0.263778 -0.962035  0.000000 -1.006404
  5H   3s         2.497440  1.250472 -0.057644 -0.214479  0.000000 -0.306798
  5H   1pz       -0.000000 -0.000000  0.000000  0.000000  0.006533 -0.000000
  5H   1px        0.012622 -0.017107  0.009333  0.011707 -0.000000  0.004489
  5H   1py       -0.009371 -0.006158  0.000377 -0.019047  0.000000 -0.018515
  5H   2pz       -0.000000  0.000000  0.000000  0.000000 -0.049743 -0.000000
  5H   2px       -0.129399 -0.026419  0.021143  0.010030 -0.000000  0.176018
  5H   2py        0.116830  0.077356  0.085478 -0.180423  0.000000 -0.230690
  5H   1dz2      -0.005258 -0.003604 -0.007897  0.004372 -0.000000  0.023661
  5H   1dxz       0.000000 -0.000000 -0.000000 -0.000000 -0.000489 -0.000000
  5H   1dyz      -0.000000  0.000000  0.000000  0.000000 -0.001579  0.000000
  5H   1dx2y2    -0.000736 -0.002663 -0.011705  0.012410 -0.000000  0.014943
  5H   1dxy      -0.011463 -0.010102 -0.000660  0.012672 -0.000000  0.026623
                     18        19        20        21        22        23   
                   0.54499   0.57006   0.57873   0.62875   0.63216   0.66699
                   0.00000   0.00000   0.00000   0.00000   0.00000   0.00000
                  --------  --------  --------  --------  --------  --------
  0C   1s         0.000000 -0.002951 -0.000000 -0.022499  0.025349  0.000000
  0C   2s        -0.000000 -0.223297  0.000000  0.335260 -0.385077 -0.000000
  0C   3s         0.000000  0.107865 -0.000000  0.032846 -0.108476 -0.000000
  0C   4s        -0.000000 -7.931433  0.000010 -3.895595  8.822024  0.000000
  0C   1pz        0.537146 -0.000000  0.000000 -0.000000 -0.000000 -0.000000
  0C   1px        0.000000  0.227880 -0.000000  0.359981 -0.263573 -0.000000
  0C   1py       -0.000000  0.000001  0.543120 -0.000000 -0.000000 -0.000000
  0C   2pz        0.301866 -0.000000  0.000000 -0.000000 -0.000000 -0.000000
  0C   2px       -0.000000 -0.599480  0.000001 -0.521460  0.785599  0.000000
  0C   2py        0.000000 -0.000001 -0.802065 -0.000000  0.000000  0.000000
  0C   3pz       -1.786324  0.000000 -0.000000  0.000000 -0.000000  0.000000
  0C   3px        0.000000  2.060760 -0.000002 -1.284487 -0.318225 -0.000000
  0C   3py        0.000000 -0.000003 -2.408835  0.000000  0.000000  0.000000
  0C   1dz2      -0.000000 -0.016953  0.000000  0.024589 -0.010468  0.000000
  0C   1dxz      -0.011731  0.000000 -0.000000 -0.000000 -0.000000  0.000000
  0C   1dyz      -0.000000 -0.000000 -0.000000 -0.000000  0.000000 -0.002801
  0C   1dx2y2     0.000000  0.008039  0.000000  0.028161 -0.012128 -0.000000
  0C   1dxy       0.000000 -0.000000 -0.038187  0.000000  0.000000  0.000000
  0C   2dz2       0.000000  0.409298 -0.000001  0.403640 -0.800228 -0.000000
  0C   2dxz       0.252606 -0.000000  0.000000 -0.000000 -0.000000 -0.000000
  0C   2dyz       0.000000  0.000000  0.000000 -0.000000  0.000000  0.402087
  0C   2dx2y2     0.000000  0.525301 -0.000000  0.295503 -0.659465 -0.000000
  0C   2dxy       0.000000 -0.000001 -0.730788  0.000000 -0.000000  0.000000
  0C   1f0        0.020518 -0.000000  0.000000 -0.000000  0.000000 -0.000000
  0C   1f+1       0.000000  0.021362 -0.000000  0.028496 -0.022949 -0.000000
  0C   1f-1      -0.000000  0.000000  0.048820  0.000000 -0.000000 -0.000000
  0C   1f+2      -0.023674  0.000000  0.000000  0.000000  0.000000  0.000000
  0C   1f-2      -0.000000 -0.000000  0.000000 -0.000000  0.000000 -0.003079
  0C   1f+3      -0.000000 -0.074297  0.000000 -0.068927  0.079710  0.000000
  0C   1f-3      -0.000000 -0.000000 -0.010179 -0.000000  0.000000 -0.000000
  1C   1s         0.000000  0.002951 -0.000000 -0.022499 -0.025349 -0.000000
  1C   2s         0.000000  0.223297 -0.000000  0.335260  0.385077  0.000000
  1C   3s        -0.000000 -0.107865  0.000000  0.032846  0.108476  0.000000
  1C   4s         0.000000  7.931433 -0.000010 -3.895594 -8.822024 -0.000000
  1C   1pz       -0.537146  0.000000 -0.000000  0.000000  0.000000  0.000000
  1C   1px        0.000000  0.227880 -0.000000 -0.359981 -0.263573 -0.000000
  1C   1py       -0.000000  0.000001  0.543120  0.000000 -0.000000  0.000000
  1C   2pz       -0.301866  0.000000 -0.000000 -0.000000 -0.000000  0.000000
  1C   2px       -0.000000 -0.599480  0.000001  0.521460  0.785599  0.000000
  1C   2py        0.000000 -0.000001 -0.802065  0.000000  0.000000 -0.000000
  1C   3pz        1.786324 -0.000000  0.000000 -0.000000 -0.000000 -0.000000
  1C   3px        0.000000  2.060760 -0.000002  1.284487 -0.318225  0.000000
  1C   3py        0.000000 -0.000003 -2.408835 -0.000000  0.000000 -0.000000
  1C   1dz2       0.000000  0.016953 -0.000000  0.024589  0.010468 -0.000000
  1C   1dxz      -0.011731 -0.000000 -0.000000  0.000000  0.000000  0.000000
  1C   1dyz      -0.000000 -0.000000 -0.000000  0.000000  0.000000 -0.002801
  1C   1dx2y2     0.000000 -0.008039 -0.000000  0.028161  0.012128  0.000000
  1C   1dxy      -0.000000  0.000000  0.038187  0.000000 -0.000000  0.000000
  1C   2dz2      -0.000000 -0.409298  0.000001  0.403640  0.800228  0.000000
  1C   2dxz       0.252606 -0.000000  0.000000  0.000000  0.000000 -0.000000
  1C   2dyz       0.000000  0.000000 -0.000000  0.000000  0.000000  0.402087
  1C   2dx2y2    -0.000000 -0.525301  0.000000  0.295503  0.659465  0.000000
  1C   2dxy      -0.000000  0.000001  0.730788  0.000000  0.000000  0.000000
  1C   1f0       -0.020518 -0.000000 -0.000000  0.000000  0.000000  0.000000
  1C   1f+1       0.000000  0.021362 -0.000000 -0.028496 -0.022949 -0.000000
  1C   1f-1      -0.000000  0.000000  0.048820  0.000000 -0.000000  0.000000
  1C   1f+2       0.023674 -0.000000 -0.000000  0.000000  0.000000 -0.000000
  1C   1f-2       0.000000  0.000000  0.000000 -0.000000 -0.000000  0.003079
  1C   1f+3      -0.000000 -0.074297  0.000000  0.068927  0.079710  0.000000
  1C   1f-3      -0.000000 -0.000000 -0.010179  0.000000  0.000000  0.000000
  2H   1s         0.000000  0.155214 -0.250758 -0.278682  0.317997  0.000000
  2H   2s         0.000000  1.837463  1.066455  0.932248 -1.805521 -0.000000
  2H   3s         0.000000 -0.160852  1.975769  1.451324 -1.698927 -0.000000
  2H   1pz       -0.009581  0.000000 -0.000000  0.000000  0.000000 -0.023588
  2H   1px       -0.000000 -0.013902  0.003036 -0.005877  0.006007 -0.000000
  2H   1py       -0.000000 -0.032191 -0.006698  0.001879  0.006462  0.000000
  2H   2pz        0.066038 -0.000000  0.000000 -0.000000 -0.000000  0.226421
  2H   2px       -0.000000 -0.321407 -0.377233 -0.265737  0.563121  0.000000
  2H   2py       -0.000000 -0.268591 -0.519121 -0.628152  0.751287  0.000000
  2H   1dz2      -0.000000 -0.022325 -0.017145 -0.027922  0.033865  0.000000
  2H   1dxz      -0.002654  0.000000  0.000000 -0.000000 -0.000000  0.002990
  2H   1dyz       0.005737 -0.000000  0.000000 -0.000000 -0.000000  0.010710
  2H   1dx2y2    -0.000000 -0.003140 -0.011395 -0.021053  0.010329  0.000000
  2H   1dxy       0.000000  0.027782  0.033119  0.030955 -0.039663 -0.000000
  3H   1s        -0.000000 -0.155214  0.250758 -0.278682 -0.317997  0.000000
  3H   2s        -0.000000 -1.837463 -1.066455  0.932248  1.805521 -0.000000
  3H   3s         0.000000  0.160852 -1.975769  1.451324  1.698927 -0.000000
  3H   1pz        0.009581 -0.000000  0.000000 -0.000000  0.000000  0.023588
  3H   1px       -0.000000 -0.013902  0.003036  0.005877  0.006007  0.000000
  3H   1py       -0.000000 -0.032191 -0.006698 -0.001879  0.006462 -0.000000
  3H   2pz       -0.066038  0.000000  0.000000 -0.000000 -0.000000 -0.226421
  3H   2px       -0.000000 -0.321407 -0.377233  0.265736  0.563121 -0.000000
  3H   2py       -0.000000 -0.268591 -0.519121  0.628152  0.751288 -0.000000
  3H   1dz2       0.000000  0.022325  0.017145 -0.027922 -0.033865  0.000000
  3H   1dxz      -0.002654  0.000000  0.000000 -0.000000 -0.000000  0.002990
  3H   1dyz       0.005737  0.000000  0.000000 -0.000000 -0.000000  0.010710
  3H   1dx2y2    -0.000000  0.003140  0.011395 -0.021053 -0.010329  0.000000
  3H   1dxy      -0.000000 -0.027782 -0.033119  0.030955  0.039663 -0.000000
  4H   1s        -0.000000 -0.155214 -0.250757 -0.278682 -0.317997 -0.000000
  4H   2s        -0.000000 -1.837460  1.066459  0.932248  1.805520  0.000000
  4H   3s         0.000000  0.160857  1.975769  1.451324  1.698926  0.000000
  4H   1pz        0.009581 -0.000000 -0.000000 -0.000000  0.000000 -0.023588
  4H   1px       -0.000000 -0.013902 -0.003036  0.005877  0.006007 -0.000000
  4H   1py        0.000000  0.032191 -0.006698  0.001879 -0.006462 -0.000000
  4H   2pz       -0.066038  0.000000 -0.000000 -0.000000 -0.000000  0.226421
  4H   2px       -0.000000 -0.321407  0.377234  0.265737  0.563121  0.000000
  4H   2py        0.000000  0.268590 -0.519121 -0.628152 -0.751287 -0.000000
  4H   1dz2       0.000000  0.022325 -0.017145 -0.027922 -0.033865 -0.000000
  4H   1dxz      -0.002654  0.000000 -0.000000 -0.000000 -0.000000 -0.002990
  4H   1dyz      -0.005737 -0.000000  0.000000  0.000000  0.000000  0.010710
  4H   1dx2y2    -0.000000  0.003139 -0.011395 -0.021052 -0.010329 -0.000000
  4H   1dxy       0.000000  0.027782 -0.033119 -0.030955 -0.039663 -0.000000
  5H   1s         0.000000  0.155214  0.250757 -0.278682  0.317997 -0.000000
  5H   2s         0.000000  1.837460 -1.066459  0.932248 -1.805520  0.000000
  5H   3s         0.000000 -0.160857 -1.975769  1.451324 -1.698926  0.000000
  5H   1pz       -0.009581  0.000000  0.000000  0.000000  0.000000  0.023588
  5H   1px       -0.000000 -0.013902 -0.003036 -0.005877  0.006007  0.000000
  5H   1py        0.000000  0.032191 -0.006698 -0.001879 -0.006462  0.000000
  5H   2pz        0.066038 -0.000000 -0.000000  0.000000 -0.000000 -0.226421
  5H   2px       -0.000000 -0.321407  0.377234 -0.265737  0.563121 -0.000000
  5H   2py        0.000000  0.268590 -0.519121  0.628152 -0.751287  0.000000
  5H   1dz2      -0.000000 -0.022325  0.017145 -0.027922  0.033865 -0.000000
  5H   1dxz      -0.002654  0.000000 -0.000000 -0.000000 -0.000000 -0.002990
  5H   1dyz      -0.005737  0.000000  0.000000  0.000000  0.000000  0.010710
  5H   1dx2y2    -0.000000 -0.003139  0.011395 -0.021052  0.010329 -0.000000
  5H   1dxy      -0.000000 -0.027782  0.033119 -0.030955  0.039663 -0.000000
                     24        25        26        27        28        29   
                   0.68310   0.77498   0.81612   0.84600   0.85440   0.97378
                   0.00000   0.00000   0.00000   0.00000   0.00000   0.00000
                  --------  --------  --------  --------  --------  --------
[...]
 	 Total Energy (E0+dE)    : E  = -78.10511609527769
 --------------------------------------------------------------- 

   *********************
    MULT 1, ROOT 2 
   *********************

  Class V0_ijab :	 dE = -0.198095686649 
  Class Vm1_iab :	 dE = -0.080588705987 
  Class Vm2_ab  :	 dE = -0.016071494103 
  Class V1_ija  :	 dE = -0.012828862431 
  Class V2_ij   :	 dE = -0.003334167212 
  Class V0_ia   :	 dE = -0.060594098498 
  Class Vm1_a   :	 dE = -0.012166378284 
  Class V1_i    :	 dE = 0.000000000000 

 --------------------------------------------------------------- 
 	 Total Energy Correction : dE = -0.38367939316454
 --------------------------------------------------------------- 
 	 Reference  Energy       : E0 = -77.53268992535014
 --------------------------------------------------------------- 
 	 Total Energy (E0+dE)    : E  = -77.91636931851468
 --------------------------------------------------------------- 

-----------------------
 NEVPT2 TOTAL ENERGIES
-----------------------
# This can be used as input for the MRCI SOC block to replace
# the diagonal energies within the QDPT treatment. 
# Note that multiplicty blocks must be ordered in decending order e.g. mult 5,3,1! 

STATE   ROOT MULT  Energy/a.u.   MRCI SOC BLOCK INPUT (cm**-1)
   0:    0    1  -78.401340    EDIAG[0] -17207105.094951
   1:    1    1  -78.105116    EDIAG[1] -17142091.562290
   2:    2    1  -77.916369    EDIAG[2] -17100666.433039

-----------------------------
 NEVPT2 TRANSITION ENERGIES
------------------------------

LOWEST ROOT (ROOT 0, MULT 1) =    -78.401339546 Eh -2133.409 eV

STATE ROOT MULT  DE/a.u.     DE/eV    DE/cm**-1
   1:   1    1   0.296223     8.061  65013.5
   2:   2    1   0.484970    13.197 106438.7

--------------------------------------------
 NEVPT2 CORRECTION TO THE TRANSITION ENERGY
--------------------------------------------
STATE  ROOT MULT DE/a.u. DE/eV 	DE/cm**-1
   1:    1    1  -0.053001     -1.442 -11632.4

STATE  ROOT MULT DE/a.u. DE/eV 	DE/cm**-1
   2:    2    1  -0.057453     -1.563 -12609.4


--------------
TIMINGS NEVPT2
--------------

Sum of individual times        ...        4.6 sec (100.0%)

   Integraltransformation      ...        3.9 sec ( 83.9%)
   Building Fock and alike     ...        0.3 sec (  6.4%)
   Building D2,D1              ...        0.0 sec (  0.0%)
   Building D3                 ...        0.0 sec (  0.8%)
   Building D4                 ...        0.1 sec (  1.1%)
   All densities               ...        0.1 sec (  1.9%)
   Hole Densities              ...        0.0 sec (  0.0%)
   Re-Canonicalization         ...        0.3 sec (  7.6%)
   Classes Vijab               ...        0.0 sec (  0.0%)
   Class Viab                  ...        0.0 sec (  0.0%)
   Class Vab                   ...        0.0 sec (  0.0%)
   Class Vija                  ...        0.0 sec (  0.0%)
   Class Vij                   ...        0.0 sec (  0.0%)
   Class Via                   ...        0.0 sec (  0.0%)
   Class Va                    ...        0.0 sec (  0.0%)
   Class Vi                    ...        0.0 sec (  0.0%)
   All Classes                 ...        0.0 sec (  0.2%)

-------------------------------------------------------------
 Forming the transition density       ... done in 0.0 sec
-------------------------------------------------------------

--------------
CASSCF TIMINGS
--------------

Total time                       ...        8.1 sec
Sum of individual times          ...        8.1 sec ( 99.4%)

Calculation of AO operators
   F(Core) operator              ...        0.7 sec (  8.0%)
   G(Act) operator               ...        0.6 sec (  6.9%)
Calculation of MO transformed quantities
   J(MO) operators               ...        2.1 sec ( 25.6%)
   AO->MO one electron integrals ...        0.0 sec (  0.0%)
Configuration interaction steps
   CI-setup phase                ...        0.0 sec (  0.4%)
   CI-solution phase             ...        0.1 sec (  1.0%)
   Generation of densities       ...        0.0 sec (  0.0%)
Orbital improvement steps
   Orbital gradient              ...        0.0 sec (  0.0%)
   O(1) converger                ...        0.0 sec (  0.5%)
CPCM steps
   Total CPCM time               ...        0.0 sec (  0.0%)
PT2 
   NEVPT2 time                   ...        4.6 sec ( 56.8%)
Properties                       ...        0.0 sec (  0.1%)
   SOC integral calculation      ...        0.0 sec (  0.0%)
   SSC RMEs (incl. integrals)    ...        0.0 sec (  0.0%)
   SOC RMEs                      ...        0.0 sec (  0.0%)

Maximum memory used throughout the entire CASSCF-calculation: 109.5 MB


           ************************************************************
           *        Program running with 8 parallel MPI-processes     *
           *              working on a common directory               *
           ************************************************************

------------------------------------------------------------------------------
                         ORCA PROPERTY INTEGRAL CALCULATIONS
------------------------------------------------------------------------------

GBWName                                   ... orca.gbw
Number of atoms                           ...      6
Number of basis functions                 ...    132
Max core memory                           ...   1024 MB

Dipole integrals                          ... YES
Quadrupole integrals                      ...  NO
Linear momentum integrals                 ...  NO
Angular momentum integrals                ... YES
Higher moments length integrals           ...  NO
Higher moments velocity integrals         ...  NO
Kinetic energy integrals                  ...  NO
GIAO right hand sides                     ...  NO
GIAO dipole derivative integrals          ...  NO
SOC integrals                             ...  NO
EPR diamagnetic integrals (GIAO)          ...  NO
EPR gauge integrals                       ...  NO
Field gradient integrals                  ...  NO (   0 nuclei)
Spin-dipole/Fermi contact integrals       ...  NO (   0 nuclei)
Contact density integrals                 ...  NO (   0 nuclei)
Nucleus-orbit integrals                   ...  NO (   0 nuclei)
Geometric perturbations                   ...  NO (   6 nuclei)

Choice of electric origin   ... Center of mass
Position of electric origin ... ( -0.0000,  0.0000, -0.0000) 
Choice of magnetic origin   ... GIAO
Position of magnetic origin ... (  0.0000,  0.0000,  0.0000) 

Calculating integrals                     ... Electric Dipole (Length)     done (  0.0 sec)
Calculating integrals                     ... Angular Momentum  (ElOri)    done (  0.0 sec)

Property integrals calculated in   0.0 sec

Maximum memory used throughout the entire PROPINT-calculation: 7.5 MB


           ************************************************************
           *        Program running with 8 parallel MPI-processes     *
           *              working on a common directory               *
           ************************************************************
-------------------------------------------------------------------------------
                              ORCA-CASSCF
-------------------------------------------------------------------------------

Setting up the integral package     ... done

PROPERTIES-SETTINGS:
  QDPT diagonal energies            ... NEVPT2 energies 


==========================================
CASSCF UV, CD spectra and dipole moments
==========================================

----------------------------------------------------------------------------------------------------
                     ABSORPTION SPECTRUM VIA TRANSITION ELECTRIC DIPOLE MOMENTS    
----------------------------------------------------------------------------------------------------
     Transition      Energy     Energy  Wavelength fosc(D2)      D2        DX        DY        DZ   
                      (eV)      (cm-1)    (nm)                 (au**2)    (au)      (au)      (au)  
----------------------------------------------------------------------------------------------------
  0-1A  ->  1-1A    9.502884   76645.9   130.5   0.562976752   2.41811   1.55503   0.00000   0.00000
  0-1A  ->  2-1A   14.760076  119048.1    84.0   0.000000000   0.00000   0.00000   0.00000   0.00000

------------------------------------------------------------------------------------------
                     CD SPECTRUM VIA TRANSITION ELECTRIC DIPOLE MOMENTS    
------------------------------------------------------------------------------------------
     Transition      Energy     Energy  Wavelength    R        MX        MY        MZ   
                      (eV)      (cm-1)    (nm)   (1e40*cgs)   (au)      (au)      (au)  
------------------------------------------------------------------------------------------
  0-1A  ->  1-1A    9.502884   76645.9   130.5   -0.00000   0.00000  -0.00000   0.00000
  0-1A  ->  2-1A   14.760076  119048.1    84.0    0.00000   0.00000  -0.00000   0.00000


=====================================================================
CASSCF (NEVPT2 diagonal energies) UV, CD spectra and dipole moments
=====================================================================

----------------------------------------------------------------------------------------------------
                     ABSORPTION SPECTRUM VIA TRANSITION ELECTRIC DIPOLE MOMENTS    
----------------------------------------------------------------------------------------------------
     Transition      Energy     Energy  Wavelength fosc(D2)      D2        DX        DY        DZ   
                      (eV)      (cm-1)    (nm)                 (au**2)    (au)      (au)      (au)  
----------------------------------------------------------------------------------------------------
  0-1A  ->  1-1A    8.060650   65013.5   153.8   0.477534857   2.41811   1.55503   0.00000   0.00000
  0-1A  ->  2-1A   13.196711  106438.7    94.0   0.000000000   0.00000   0.00000   0.00000   0.00000

------------------------------------------------------------------------------------------
                     CD SPECTRUM VIA TRANSITION ELECTRIC DIPOLE MOMENTS    
------------------------------------------------------------------------------------------
     Transition      Energy     Energy  Wavelength    R        MX        MY        MZ   
                      (eV)      (cm-1)    (nm)   (1e40*cgs)   (au)      (au)      (au)  
------------------------------------------------------------------------------------------
  0-1A  ->  1-1A    8.060650   65013.5   153.8   -0.00000   0.00000  -0.00000   0.00000
  0-1A  ->  2-1A   13.196711  106438.7    94.0    0.00000   0.00000  -0.00000   0.00000

--------------
CASSCF TIMINGS
--------------

Total time                       ...        1.4 sec
Sum of individual times          ...        1.4 sec ( 99.5%)

Calculation of AO operators
Calculation of MO transformed quantities
Configuration interaction steps
   CI-setup phase                ...        1.4 sec ( 99.5%)
Orbital improvement steps

Maximum memory used throughout the entire CASSCF-calculation: 28.1 MB

-------------------------   --------------------
FINAL SINGLE POINT ENERGY       -78.140941653278
-------------------------   --------------------



           ************************************************************
           *        Program running with 8 parallel MPI-processes     *
           *              working on a common directory               *
           ************************************************************

------------------------------------------------------------------------------
                              ORCA PROPERTY CALCULATIONS
------------------------------------------------------------------------------

GBWName                                 ... orca.gbw
Number of atoms                         ...      6
Number of basis functions               ...    132
Max core memory                         ...   1024 MB

Electric properties:
Dipole moment                           ... YES
Quadrupole moment                       ...  NO
Static polarizability (Dipole/Dipole)   ...  NO
Static polarizability (Dipole/Quad.)    ...  NO
Static polarizability (Quad./Quad.)     ...  NO
Static polarizability (Velocity)        ...  NO

Atomic electric properties:
Dipole moment                           ...  NO
Quadrupole moment                       ...  NO
Static polarizability                   ...  NO

Choice of electric origin               ... Center of mass
Position of electric origin             ...    -0.000000     0.000000    -0.000000

General magnetic properties:
Magnetizability                         ...  NO

EPR properties:
g-Tensor (aka g-matrix)                 ...  NO
Zero-Field splitting spin-orbit         ...  NO
Zero-field splitting spin-spin          ...  NO
Hyperfine couplings                     ...  NO (   0 nuclei)
Quadrupole couplings                    ...  NO (   0 nuclei)
Contact density                         ...  NO (   0 nuclei)

NMR properties:
Chemical shifts                         ...  NO (   0 nuclei)
Spin-rotation constants                 ...  NO (   0 nuclei)
Spin-spin couplings                     ...  NO (   0 nuclei,    0 pairs)

Choice of magnetic origin               ... GIAO
Position of magnetic origin             ...     0.000000     0.000000     0.000000

Properties with geometric perturbations:
SCF Hessian                             ...  NO
IR spectrum                             ...  NO
VCD spectrum                            ...  NO
X-ray spectroscopy properties:
SCF XES/XAS/RIXS spectra                ...  NO


-------------
DIPOLE MOMENT
-------------

Method             : CASSCF
Type of density    : Electron Density
Level              : Unrelaxed density
State              :  -1
Multiplicity       :  -1
Irrep              :   0
Energy             :   -77.7778969534887352 Eh
Relativity type    : 
Basis              : AO
                                X                 Y                 Z
Electronic contribution:     -0.000000017       0.000000009      -0.000000000
Nuclear contribution   :      0.000000018      -0.000000007       0.000000000
                        -----------------------------------------
Total Dipole Moment    :      0.000000001       0.000000002       0.000000000
                        -----------------------------------------
Magnitude (a.u.)       :      0.000000002
Magnitude (Debye)      :      0.000000006



--------------------
Rotational spectrum 
--------------------
 
Rotational constants in cm-1:             4.909538             1.007321             0.835829 
Rotational constants in MHz :        147184.243121         30198.723516         25057.514530 

Dipole components along the rotational axes: 
x,y,z [a.u.] :     0.000000    -0.000000     0.000000 
x,y,z [Debye]:     0.000000    -0.000000     0.000000 

 

Dipole moment calculation done in   0.0 sec 

Maximum memory used throughout the entire PROP-calculation: 4.3 MB

--------------------------------
SUGGESTED CITATIONS FOR THIS RUN
--------------------------------

Below you find a list of papers that are relevant to this ORCA run
We neither can nor want to force you to cite these papers, but we appreciate if you do
You receive ORCA, which is the product of decades of hard work by many enthusiastic individuals, for free
The only thing we kindly ask in return is that you cite our papers,
We deeply appreciate it, if you show your appreciation for ORCA by not just citing the generic ORCA reference.

Please note that relegating all ORCA citations to the supporting information does *not* help us.
SI sections are not indexed - citations you put there will not count into any citation statistics
But we need these citations in order to attract the funding resources that allow us to do what we are doing

Therefore, if you are a happy ORCA user, please consider citing a few of the papers listed below in the main body of your paper

In addition to the list printed below, the program has created the file orca.bibtex that contains the list in bibtex format
You can import this file easily into all common literature databanks and citation aid programs


List of essential papers. We consider these as the minimum necessary citations

  1. Neese,F.
     Software update: the ORCA program system, version 5.0
     WIRES Comput. Molec. Sci., 2022 12(1)e1606
     doi.org/10.1002/wcms.1606

List of papers to cite with high priority. The work reported in these papers was absolutely
necessary for this run to complete.
Our perspective: the developers of density functionals and basis sets usually get cited in chemistry papers
Good! But without the algorithms to do something with them, the functionals or basis sets would not do anything.
Hence, in our opinion, the algorithm design and method developments papers are equally worthy of getting cited

  1. Kollmar,C.; Sivalingam,K.; Helmich-Paris,B.; Angeli,C.; Neese,F.
     A perturbation-based super-CI approach for the orbital optimization of a CASSCF wave function
     J. Comput. Chem., 2019 40 1463-1470
     doi.org/10.1002/jcc.25801
  2. Kollmar,C.; Sivalingam,K.; Neese,F.
     An efficient implementation of the NEVPT2 and CASPT2 methods avoiding higher-order density matrices
     J. Chem. Phys., 2021 155 234104
     doi.org/10.1063/5.0072129
  3. Guo,Y.; Sivalingam,K.; Neese,F.
     Approximations of density matrices in N-electron valence state second-order perturbation theory (NEVPT2). I. Revisiting the NEVPT2 construction
     J. Chem. Phys., 2021 154 214111
  4. Neese,F.
     The SHARK Integral Generation and Digestion System
     J. Comp. Chem., 2022  1-16
     doi.org/10.1002/jcc.26942
  5. Ugandi,M.; Roemelt,M.
     A recursive formulation of one-electron coupling coefficients for spin-adapted configuration interaction calculations featuring many unpaired electrons
     Int. J. Quantum Chem., 2023 123 e27045
     doi.org/10.1002/qua.27045

List of suggested additional citations. These are papers that are important in the 'surrounding' of 
of this run, or papers that preceded the highly important papers. If you like your results we are grateful for a citation.

  1. Neese,F.
     The ORCA program system
     WIRES Comput. Molec. Sci., 2012 2(1)73-78
     doi.org/10.1002/wcms.81
  2. Schapiro,I.; Sivalingam,K.; Neese,F.
     Assessment of n-Electron Valence State Perturbation Theory for Vertical Excitation Energies
     J. Theo. Comp. Chem., 2013 9 3567-3580
     doi.org/10.1021/ct400136y
  3. Neese,F.
     Software update: the ORCA program system, version 4.0
     WIRES Comput. Molec. Sci., 2018 8(1)1-6
     doi.org/10.1002/wcms.1327
  4. Neese,F.; Wennmohs,F.; Becker,U.; Riplinger,C.
     The ORCA quantum chemistry program package
     J. Chem. Phys., 2020 152 Art. No. L224108
     doi.org/10.1063/5.0004608
  5. Guo,Y.; Sivalingam,K.; Kollmar,C.; Neese,F.
     Approximations of density matrices in N-electron valence state second-order perturbation theory (NEVPT2). II. The full rank NEVPT2 (FR-NEVPT2) formulation
     J. Chem. Phys., 2021 154 214113

List of optional additional citations

  1. Neese,F.
     Approximate second-order SCF convergence for spin unrestricted wavefunctions
     Chem. Phys. Lett., 2000 325(1-3)93-98
     doi.org/10.1016/s0009-2614(00)00662-x

Timings for individual modules:

Sum of individual times          ...       13.070 sec (=   0.218 min)
Startup calculation              ...        0.581 sec (=   0.010 min)   4.4 %
SCF iterations                   ...        0.304 sec (=   0.005 min)   2.3 %
CASSCF iterations                ...       11.599 sec (=   0.193 min)  88.7 %
Property integrals               ...        0.303 sec (=   0.005 min)   2.3 %
Property calculations            ...        0.284 sec (=   0.005 min)   2.2 %
                             ****ORCA TERMINATED NORMALLY****
TOTAL RUN TIME: 0 days 0 hours 0 minutes 13 seconds 363 msec
